
    -----------------------------------------------------------------------
          Psi4: An Open-Source Ab Initio Electronic Structure Package
                               Psi4 1.2.1 release

                         Git: Rev {HEAD} 406f4de 


    R. M. Parrish, L. A. Burns, D. G. A. Smith, A. C. Simmonett,
    A. E. DePrince III, E. G. Hohenstein, U. Bozkaya, A. Yu. Sokolov,
    R. Di Remigio, R. M. Richard, J. F. Gonthier, A. M. James,
    H. R. McAlexander, A. Kumar, M. Saitow, X. Wang, B. P. Pritchard,
    P. Verma, H. F. Schaefer III, K. Patkowski, R. A. King, E. F. Valeev,
    F. A. Evangelista, J. M. Turney, T. D. Crawford, and C. D. Sherrill,
    J. Chem. Theory Comput. 13(7) pp 3185--3197 (2017).
    (doi: 10.1021/acs.jctc.7b00174)


                         Additional Contributions by
    P. Kraus, H. Kruse, M. H. Lechner, M. C. Schieber, and R. A. Shaw

    -----------------------------------------------------------------------


    Psi4 started on: Monday, 30 December 2019 05:15PM

    Process ID: 10
    Host:       1f6b98498ad5
    PSIDATADIR: /usr/local/share/psi4
    Memory:     500.0 MiB
    Threads:    1
    
  ==> Input File <==

--------------------------------------------------------------------------
molecule {
  0 1
  C      2.47560   -0.99960    0.00040
  C      1.33790   -1.83390    0.00070
  C      0.05230   -1.26930    0.00070
  C     -1.18140   -1.94020    0.00030
  C     -2.38530   -1.20490   -0.00130
  C     -2.40650    0.20600   -0.00240
  C     -1.17270    0.84510   -0.00110
  C     -0.00510    0.09520    0.00040
  C      1.09480    0.94160    0.00020
  C      2.37820    0.40840    0.00040
  C      0.57730    2.36110   -0.00100
  C     -0.77860    2.30300   -0.00180
  H      3.46220   -1.45950    0.00000
  H      1.45950   -2.91390    0.00030
  H     -1.21240   -3.02650    0.00070
  H     -3.32940   -1.74650   -0.00210
  H     -3.33400    0.76520   -0.00470
  H      3.25640    1.04250   -0.00010
  H      1.19110    3.24830   -0.00150
  H     -1.46760    3.13320   -0.00310
}

set basis 3-21g
set reference rks
set print_basis true
set print_MOs true
optimize('b3lyp')--------------------------------------------------------------------------
gradient() will perform analytic gradient computation.

*** tstart() called on 1f6b98498ad5
*** at Mon Dec 30 17:15:54 2019

   => Loading Basis Set <=

    Name: 3-21G
    Role: ORBITAL
    Keyword: BASIS
    atoms 1-12  entry C          line    68 file /usr/local/share/psi4/basis/3-21g.gbs 
    atoms 13-20 entry H          line    21 file /usr/local/share/psi4/basis/3-21g.gbs 


         ---------------------------------------------------------
                                   SCF
            by Justin Turney, Rob Parrish, Andy Simmonett
                             and Daniel Smith
                              RKS Reference
                        1 Threads,    500 MiB Core
         ---------------------------------------------------------

  ==> Geometry <==

    Molecular point group: c1
    Full point group: C1

    Geometry (in Angstrom), charge = 0, multiplicity = 1:

       Center              X                  Y                   Z               Mass       
    ------------   -----------------  -----------------  -----------------  -----------------
         C            2.476494356100    -0.986350916285     0.000824707737    12.000000000000
         C            1.338794356100    -1.820650916285     0.001124707737    12.000000000000
         C            0.053194356100    -1.256050916285     0.001124707737    12.000000000000
         C           -1.180505643900    -1.926950916285     0.000724707737    12.000000000000
         C           -2.384405643900    -1.191650916285    -0.000875292263    12.000000000000
         C           -2.405605643900     0.219249083715    -0.001975292263    12.000000000000
         C           -1.171805643900     0.858349083715    -0.000675292263    12.000000000000
         C           -0.004205643900     0.108449083715     0.000824707737    12.000000000000
         C            1.095694356100     0.954849083715     0.000624707737    12.000000000000
         C            2.379094356100     0.421649083715     0.000824707737    12.000000000000
         C            0.578194356100     2.374349083715    -0.000575292263    12.000000000000
         C           -0.777705643900     2.316249083715    -0.001375292263    12.000000000000
         H            3.463094356100    -1.446250916285     0.000424707737     1.007825032070
         H            1.460394356100    -2.900650916285     0.000724707737     1.007825032070
         H           -1.211505643900    -3.013250916285     0.001124707737     1.007825032070
         H           -3.328505643900    -1.733250916285    -0.001675292263     1.007825032070
         H           -3.333105643900     0.778449083715    -0.004275292263     1.007825032070
         H            3.257294356100     1.055749083715     0.000324707737     1.007825032070
         H            1.191994356100     3.261549083715    -0.001075292263     1.007825032070
         H           -1.466705643900     3.146449083715    -0.002675292263     1.007825032070

  Running in c1 symmetry.

  Rotational constants: A =      0.05082  B =      0.04090  C =      0.02266 [cm^-1]
  Rotational constants: A =   1523.58840  B =   1226.29948  C =    679.43712 [MHz]
  Nuclear repulsion =  612.714683386161028

  Charge       = 0
  Multiplicity = 1
  Electrons    = 80
  Nalpha       = 40
  Nbeta        = 40

  ==> Algorithm <==

  SCF Algorithm Type is DF.
  DIIS enabled.
  MOM disabled.
  Fractional occupation disabled.
  Guess Type is SAD.
  Energy threshold   = 1.00e-08
  Density threshold  = 1.00e-08
  Integral threshold = 0.00e+00

  ==> Primary Basis <==

  Basis Set: 3-21G
    Blend: 3-21G
    Number of shells: 76
    Number of basis function: 124
    Number of Cartesian functions: 124
    Spherical Harmonics?: false
    Max angular momentum: 1

  ==> DFT Potential <==

   => Composite Functional: B3LYP <= 

    B3LYP Hyb-GGA Exchange-Correlation Functional

    P. J. Stephens, F. J. Devlin, C. F. Chabalowski, and M. J. Frisch, J. Phys. Chem. 98, 11623 (1994)

    Deriv               =              1
    GGA                 =           TRUE
    Meta                =          FALSE

    Exchange Hybrid     =           TRUE
    MP2 Hybrid          =          FALSE

   => Exchange Functionals <=

    0.0800   Slater exchange
    0.7200         Becke 88

   => Exact (HF) Exchange <=

    0.2000               HF 

   => Correlation Functionals <=

    0.1900   Vosko, Wilk & Nusair (VWN5_RPA)
    0.8100   Lee, Yang & Parr

   => Molecular Quadrature <=

    Radial Scheme       =       TREUTLER
    Pruning Scheme      =           FLAT
    Nuclear Scheme      =       TREUTLER

    BS radius alpha     =              1
    Pruning alpha       =              1
    Radial Points       =             75
    Spherical Points    =            302
    Total Points        =         436654
    Total Blocks        =           3280
    Max Points          =            256
    Max Functions       =            112

   => Loading Basis Set <=

    Name: (3-21G AUX)
    Role: JKFIT
    Keyword: DF_BASIS_SCF
    atoms 1-12  entry C          line   203 file /usr/local/share/psi4/basis/def2-svp-jkfit.gbs 
    atoms 13-20 entry H          line    23 file /usr/local/share/psi4/basis/def2-svp-jkfit.gbs 

  -AO BASIS SET INFORMATION:
    Name                   = 3-21G
    Blend                  = 3-21G
    Total number of shells = 76
    Number of primitives   = 132
    Number of AO           = 124
    Number of SO           = 124
    Maximum AM             = 1
    Spherical Harmonics    = FALSE

  -Contraction Scheme:
    Atom   Type   All Primitives // Shells:
   ------ ------ --------------------------
       1     C     6s 3p // 3s 2p 
       2     C     6s 3p // 3s 2p 
       3     C     6s 3p // 3s 2p 
       4     C     6s 3p // 3s 2p 
       5     C     6s 3p // 3s 2p 
       6     C     6s 3p // 3s 2p 
       7     C     6s 3p // 3s 2p 
       8     C     6s 3p // 3s 2p 
       9     C     6s 3p // 3s 2p 
      10     C     6s 3p // 3s 2p 
      11     C     6s 3p // 3s 2p 
      12     C     6s 3p // 3s 2p 
      13     H     3s // 2s 
      14     H     3s // 2s 
      15     H     3s // 2s 
      16     H     3s // 2s 
      17     H     3s // 2s 
      18     H     3s // 2s 
      19     H     3s // 2s 
      20     H     3s // 2s 

  ==> AO Basis Functions <==

    [ 3-21G ]
    cartesian
    ****
    C   1
    S   3 1.00
                       172.25600000           0.06176690
                        25.91090000           0.35879400
                         5.53335000           0.70071300
    S   2 1.00
                         3.66498000          -0.39589700
                         0.77054500           1.21584000
    P   2 1.00
                         3.66498000           0.23646000
                         0.77054500           0.86061900
    S   1 1.00
                         0.19585700           1.00000000
    P   1 1.00
                         0.19585700           1.00000000
    ****
    C   2
    S   3 1.00
                       172.25600000           0.06176690
                        25.91090000           0.35879400
                         5.53335000           0.70071300
    S   2 1.00
                         3.66498000          -0.39589700
                         0.77054500           1.21584000
    P   2 1.00
                         3.66498000           0.23646000
                         0.77054500           0.86061900
    S   1 1.00
                         0.19585700           1.00000000
    P   1 1.00
                         0.19585700           1.00000000
    ****
    C   3
    S   3 1.00
                       172.25600000           0.06176690
                        25.91090000           0.35879400
                         5.53335000           0.70071300
    S   2 1.00
                         3.66498000          -0.39589700
                         0.77054500           1.21584000
    P   2 1.00
                         3.66498000           0.23646000
                         0.77054500           0.86061900
    S   1 1.00
                         0.19585700           1.00000000
    P   1 1.00
                         0.19585700           1.00000000
    ****
    C   4
    S   3 1.00
                       172.25600000           0.06176690
                        25.91090000           0.35879400
                         5.53335000           0.70071300
    S   2 1.00
                         3.66498000          -0.39589700
                         0.77054500           1.21584000
    P   2 1.00
                         3.66498000           0.23646000
                         0.77054500           0.86061900
    S   1 1.00
                         0.19585700           1.00000000
    P   1 1.00
                         0.19585700           1.00000000
    ****
    C   5
    S   3 1.00
                       172.25600000           0.06176690
                        25.91090000           0.35879400
                         5.53335000           0.70071300
    S   2 1.00
                         3.66498000          -0.39589700
                         0.77054500           1.21584000
    P   2 1.00
                         3.66498000           0.23646000
                         0.77054500           0.86061900
    S   1 1.00
                         0.19585700           1.00000000
    P   1 1.00
                         0.19585700           1.00000000
    ****
    C   6
    S   3 1.00
                       172.25600000           0.06176690
                        25.91090000           0.35879400
                         5.53335000           0.70071300
    S   2 1.00
                         3.66498000          -0.39589700
                         0.77054500           1.21584000
    P   2 1.00
                         3.66498000           0.23646000
                         0.77054500           0.86061900
    S   1 1.00
                         0.19585700           1.00000000
    P   1 1.00
                         0.19585700           1.00000000
    ****
    C   7
    S   3 1.00
                       172.25600000           0.06176690
                        25.91090000           0.35879400
                         5.53335000           0.70071300
    S   2 1.00
                         3.66498000          -0.39589700
                         0.77054500           1.21584000
    P   2 1.00
                         3.66498000           0.23646000
                         0.77054500           0.86061900
    S   1 1.00
                         0.19585700           1.00000000
    P   1 1.00
                         0.19585700           1.00000000
    ****
    C   8
    S   3 1.00
                       172.25600000           0.06176690
                        25.91090000           0.35879400
                         5.53335000           0.70071300
    S   2 1.00
                         3.66498000          -0.39589700
                         0.77054500           1.21584000
    P   2 1.00
                         3.66498000           0.23646000
                         0.77054500           0.86061900
    S   1 1.00
                         0.19585700           1.00000000
    P   1 1.00
                         0.19585700           1.00000000
    ****
    C   9
    S   3 1.00
                       172.25600000           0.06176690
                        25.91090000           0.35879400
                         5.53335000           0.70071300
    S   2 1.00
                         3.66498000          -0.39589700
                         0.77054500           1.21584000
    P   2 1.00
                         3.66498000           0.23646000
                         0.77054500           0.86061900
    S   1 1.00
                         0.19585700           1.00000000
    P   1 1.00
                         0.19585700           1.00000000
    ****
    C  10
    S   3 1.00
                       172.25600000           0.06176690
                        25.91090000           0.35879400
                         5.53335000           0.70071300
    S   2 1.00
                         3.66498000          -0.39589700
                         0.77054500           1.21584000
    P   2 1.00
                         3.66498000           0.23646000
                         0.77054500           0.86061900
    S   1 1.00
                         0.19585700           1.00000000
    P   1 1.00
                         0.19585700           1.00000000
    ****
    C  11
    S   3 1.00
                       172.25600000           0.06176690
                        25.91090000           0.35879400
                         5.53335000           0.70071300
    S   2 1.00
                         3.66498000          -0.39589700
                         0.77054500           1.21584000
    P   2 1.00
                         3.66498000           0.23646000
                         0.77054500           0.86061900
    S   1 1.00
                         0.19585700           1.00000000
    P   1 1.00
                         0.19585700           1.00000000
    ****
    C  12
    S   3 1.00
                       172.25600000           0.06176690
                        25.91090000           0.35879400
                         5.53335000           0.70071300
    S   2 1.00
                         3.66498000          -0.39589700
                         0.77054500           1.21584000
    P   2 1.00
                         3.66498000           0.23646000
                         0.77054500           0.86061900
    S   1 1.00
                         0.19585700           1.00000000
    P   1 1.00
                         0.19585700           1.00000000
    ****
    H  13
    S   2 1.00
                         5.44717800           0.15628500
                         0.82454700           0.90469100
    S   1 1.00
                         0.18319200           1.00000000
    ****
    H  14
    S   2 1.00
                         5.44717800           0.15628500
                         0.82454700           0.90469100
    S   1 1.00
                         0.18319200           1.00000000
    ****
    H  15
    S   2 1.00
                         5.44717800           0.15628500
                         0.82454700           0.90469100
    S   1 1.00
                         0.18319200           1.00000000
    ****
    H  16
    S   2 1.00
                         5.44717800           0.15628500
                         0.82454700           0.90469100
    S   1 1.00
                         0.18319200           1.00000000
    ****
    H  17
    S   2 1.00
                         5.44717800           0.15628500
                         0.82454700           0.90469100
    S   1 1.00
                         0.18319200           1.00000000
    ****
    H  18
    S   2 1.00
                         5.44717800           0.15628500
                         0.82454700           0.90469100
    S   1 1.00
                         0.18319200           1.00000000
    ****
    H  19
    S   2 1.00
                         5.44717800           0.15628500
                         0.82454700           0.90469100
    S   1 1.00
                         0.18319200           1.00000000
    ****
    H  20
    S   2 1.00
                         5.44717800           0.15628500
                         0.82454700           0.90469100
    S   1 1.00
                         0.18319200           1.00000000
    ****

  ==> Pre-Iterations <==

   -------------------------------------------------------
    Irrep   Nso     Nmo     Nalpha   Nbeta   Ndocc  Nsocc
   -------------------------------------------------------
     A        124     124       0       0       0       0
   -------------------------------------------------------
    Total     124     124      40      40      40       0
   -------------------------------------------------------

  ==> Integral Setup <==

  ==> DiskDFJK: Density-Fitted J/K Matrices <==

    J tasked:                  Yes
    K tasked:                  Yes
    wK tasked:                  No
    OpenMP threads:              1
    Integrals threads:           1
    Memory (MB):               375
    Algorithm:                Core
    Integral Cache:           NONE
    Schwarz Cutoff:          1E-12
    Fitting Condition:       1E-12

   => Auxiliary Basis Set <=

  Basis Set: (3-21G AUX)
    Blend: DEF2-SVP-JKFIT
    Number of shells: 348
    Number of basis function: 1228
    Number of Cartesian functions: 1228
    Spherical Harmonics?: false
    Max angular momentum: 4

  Minimum eigenvalue in the overlap matrix is 9.0448474447E-04.
  Using Symmetric Orthogonalization.

  SCF Guess: Superposition of Atomic Densities via on-the-fly atomic UHF.

  ==> Iterations <==

                           Total Energy        Delta E     RMS |[F,P]|

   @DF-RKS iter   0:  -462.50139148005917   -4.62501e+02   4.80615e-02 
   @DF-RKS iter   1:  -459.36932008692872    3.13207e+00   4.33662e-03 
   @DF-RKS iter   2:  -459.38024230179087   -1.09222e-02   4.13190e-03 DIIS
   @DF-RKS iter   3:  -459.51071349670445   -1.30471e-01   1.51726e-03 DIIS
   @DF-RKS iter   4:  -459.53064960912991   -1.99361e-02   4.24675e-04 DIIS
   @DF-RKS iter   5:  -459.53209062095686   -1.44101e-03   1.59156e-04 DIIS
   @DF-RKS iter   6:  -459.53229505594896   -2.04435e-04   3.96298e-05 DIIS
   @DF-RKS iter   7:  -459.53230528574682   -1.02298e-05   2.21181e-05 DIIS
   @DF-RKS iter   8:  -459.53230948739588   -4.20165e-06   1.69953e-06 DIIS
   @DF-RKS iter   9:  -459.53230949882754   -1.14317e-08   1.32565e-06 DIIS
   @DF-RKS iter  10:  -459.53230951345893   -1.46314e-08   4.30202e-07 DIIS
   @DF-RKS iter  11:  -459.53230951509192   -1.63300e-09   1.34673e-07 DIIS
   @DF-RKS iter  12:  -459.53230951525791   -1.65983e-10   3.27540e-08 DIIS
   @DF-RKS iter  13:  -459.53230951526615   -8.24230e-12   1.32169e-08 DIIS
   @DF-RKS iter  14:  -459.53230951526893   -2.78533e-12   2.88406e-09 DIIS

  ==> Post-Iterations <==

    Orbital Energies [Eh]
    ---------------------

    Doubly Occupied:                                                      

       1A    -10.139775     2A    -10.139668     3A    -10.138116  
       4A    -10.138004     5A    -10.136575     6A    -10.136532  
       7A    -10.134469     8A    -10.133943     9A    -10.133708  
      10A    -10.130037    11A    -10.128768    12A    -10.109517  
      13A     -0.904210    14A     -0.830511    15A     -0.830285  
      16A     -0.756705    17A     -0.725233    18A     -0.721352  
      19A     -0.645049    20A     -0.625049    21A     -0.589405  
      22A     -0.576452    23A     -0.521673    24A     -0.515207  
      25A     -0.484568    26A     -0.467688    27A     -0.449326  
      28A     -0.426616    29A     -0.425534    30A     -0.413504  
      31A     -0.406039    32A     -0.394076    33A     -0.361732  
      34A     -0.344059    35A     -0.339853    36A     -0.333419  
      37A     -0.328399    38A     -0.253956    39A     -0.224702  
      40A     -0.222371  

    Virtual:                                                              

      41A     -0.069759    42A     -0.000952    43A      0.046464  
      44A      0.053549    45A      0.113584    46A      0.128308  
      47A      0.132825    48A      0.157335    49A      0.162670  
      50A      0.176377    51A      0.191057    52A      0.194312  
      53A      0.204681    54A      0.229154    55A      0.231432  
      56A      0.281793    57A      0.284650    58A      0.298647  
      59A      0.321088    60A      0.331476    61A      0.356206  
      62A      0.409487    63A      0.435242    64A      0.462572  
      65A      0.519338    66A      0.530536    67A      0.614358  
      68A      0.645831    69A      0.649039    70A      0.680055  
      71A      0.705733    72A      0.716742    73A      0.716803  
      74A      0.725889    75A      0.733013    76A      0.733496  
      77A      0.755829    78A      0.766353    79A      0.776180  
      80A      0.778087    81A      0.788958    82A      0.821793  
      83A      0.837130    84A      0.842343    85A      0.847015  
      86A      0.865956    87A      0.872988    88A      0.905236  
      89A      0.947539    90A      0.960413    91A      0.972783  
      92A      0.989111    93A      0.993731    94A      1.015250  
      95A      1.019301    96A      1.028704    97A      1.032981  
      98A      1.076060    99A      1.146568   100A      1.207155  
     101A      1.208459   102A      1.226930   103A      1.256322  
     104A      1.283937   105A      1.347546   106A      1.396234  
     107A      1.414727   108A      1.478287   109A      1.506383  
     110A      1.528024   111A      1.536322   112A      1.566812  
     113A      1.567513   114A      1.593368   115A      1.649643  
     116A      1.710520   117A      1.756364   118A      1.787325  
     119A      1.879756   120A      1.934039   121A      2.019037  
     122A      2.148262   123A      2.423219   124A      2.539441  

    Final Occupation by Irrep:
              A 
    DOCC [    40 ]

  Energy converged.

  @DF-RKS Final Energy:  -459.53230951526893

   => Energetics <=

    Nuclear Repulsion Energy =            612.7146833861610276
    One-Electron Energy =               -1833.5554167230950497
    Two-Electron Energy =                 816.2538409286245269
    DFT Exchange-Correlation Energy =     -54.9454171069593187
    Empirical Dispersion Energy =           0.0000000000000000
    VV10 Nonlocal Energy =                  0.0000000000000000
    Total Energy =                       -459.5323095152689348



Properties will be evaluated at   0.000000,   0.000000,   0.000000 [a0]

Properties computed using the SCF density matrix

  Nuclear Dipole Moment: [e a0]
     X:     0.0309      Y:    -0.7980      Z:    -0.0067

  Electronic Dipole Moment: [e a0]
     X:    -0.0262      Y:     0.6736      Z:     0.0051

  Dipole Moment: [e a0]
     X:     0.0047      Y:    -0.1244      Z:    -0.0016     Total:     0.1245

  Dipole Moment: [D]
     X:     0.0120      Y:    -0.3162      Z:    -0.0040     Total:     0.3165


  ==> Molecular Orbitals <==

                            1            2            3            4            5

 1    C1 s          0.2431975    0.0067110    0.3356080    0.2765071    0.8412930
 2    C1 s          0.0321608    0.0007374    0.0402372    0.0327623    0.0905753
 3    C1 px        -0.0011474   -0.0000639   -0.0016138   -0.0010208   -0.0003114
 4    C1 py         0.0015275    0.0000117   -0.0002701   -0.0001584    0.0005267
 5    C1 pz         0.0000006   -0.0000000    0.0000007    0.0000002    0.0000000
 6    C1 s         -0.0714948    0.0012313   -0.0577461   -0.0485519   -0.0584174
 7    C1 px         0.0258855   -0.0017542    0.0252798    0.0197092    0.0047847
 8    C1 py        -0.0238097   -0.0006987   -0.0020631   -0.0007638   -0.0049015
 9    C1 pz        -0.0000059    0.0000010   -0.0000062   -0.0000054   -0.0000020
 10   C2 s         -0.0658873   -0.0019705   -0.6561208   -0.5503776    0.4387465
 11   C2 s         -0.0095387   -0.0000873   -0.0756614   -0.0631480    0.0456933
 12   C2 px         0.0004437    0.0003752   -0.0000951   -0.0005722   -0.0016813
 13   C2 py         0.0000490    0.0000337   -0.0019228   -0.0012437   -0.0005871
 14   C2 pz        -0.0000001   -0.0000002    0.0000000    0.0000010   -0.0000004
 15   C2 s          0.0391450   -0.0081526    0.0846557    0.0796008   -0.0194268
 16   C2 px        -0.0029907    0.0011057   -0.0019626   -0.0029782    0.0108555
 17   C2 py         0.0215705   -0.0039063    0.0270197    0.0264229    0.0028710
 18   C2 pz        -0.0000008   -0.0000012   -0.0000057   -0.0000015    0.0000023
 19   C3 s          0.0093305    0.0109473    0.2066010   -0.0221990   -0.1428924
 20   C3 s          0.0019518    0.0022359    0.0290878   -0.0030959   -0.0176799
 21   C3 px         0.0004002   -0.0003802    0.0003173    0.0029547   -0.0021099
 22   C3 py         0.0000165   -0.0000204   -0.0006884    0.0001963    0.0000847
 23   C3 pz         0.0000004   -0.0000002   -0.0000000    0.0000007    0.0000004
 24   C3 s         -0.0179641   -0.0198670   -0.0825583    0.0084245    0.0207833
 25   C3 px        -0.0208814    0.0198047   -0.0047608   -0.0496027    0.0077727
 26   C3 py        -0.0038738   -0.0024444   -0.0072665   -0.0013835    0.0009738
 27   C3 pz        -0.0000021    0.0000080    0.0000123   -0.0000147   -0.0000045
 28   C4 s          0.0034845   -0.0710680   -0.5355737    0.6736204   -0.0732691
 29   C4 s          0.0006949   -0.0101337   -0.0617800    0.0773161   -0.0077066
 30   C4 px        -0.0003369   -0.0004650    0.0001047   -0.0007038   -0.0004281
 31   C4 py         0.0000037   -0.0000064   -0.0016261    0.0015470    0.0002853
 32   C4 pz        -0.0000003   -0.0000013    0.0000012   -0.0000022   -0.0000004
 33   C4 s         -0.0111671    0.0392406    0.0669170   -0.0949045    0.0014421
 34   C4 px        -0.0008673    0.0010744   -0.0003858   -0.0007417    0.0030984
 35   C4 py        -0.0056567    0.0216674    0.0210746   -0.0313553   -0.0017909
 36   C4 pz         0.0000013   -0.0000108   -0.0000193    0.0000213    0.0000049
 37   C5 s         -0.0125123    0.2492585    0.2667766   -0.3290273   -0.0957329
 38   C5 s         -0.0018031    0.0328409    0.0321149   -0.0391472   -0.0106212
 39   C5 px        -0.0000192    0.0010326    0.0013865   -0.0013278    0.0000044
 40   C5 py        -0.0001099    0.0016198   -0.0001288    0.0001134   -0.0000084
 41   C5 pz        -0.0000001    0.0000001    0.0000018   -0.0000013   -0.0000002
 42   C5 s          0.0068326   -0.0720142   -0.0461125    0.0582489    0.0105537
 43   C5 px         0.0036717   -0.0238465   -0.0204310    0.0240407    0.0024067
 44   C5 py         0.0014920   -0.0259560   -0.0034667    0.0030336    0.0009720
 45   C5 pz         0.0000040   -0.0000073   -0.0000168    0.0000209    0.0000019
 46   C6 s          0.0371335   -0.9460502    0.1097303   -0.1357865   -0.0251035
 47   C6 s          0.0045035   -0.1080953    0.0105951   -0.0130703   -0.0022830
 48   C6 px        -0.0000960   -0.0015593    0.0001468    0.0000230    0.0000282
 49   C6 py        -0.0001345    0.0013667   -0.0002082    0.0001305   -0.0002996
 50   C6 pz        -0.0000000   -0.0000032    0.0000002    0.0000004    0.0000004
 51   C6 s         -0.0113591    0.1253008    0.0110347   -0.0108305   -0.0013489
 52   C6 px        -0.0049904    0.0374190    0.0083472   -0.0092227   -0.0017303
 53   C6 py         0.0005006   -0.0200210   -0.0065431    0.0085402    0.0035539
 54   C6 pz        -0.0000090    0.0000684    0.0000162   -0.0000201   -0.0000056
 55   C7 s          0.0021511    0.0970799   -0.0097524    0.0231547   -0.0117856
 56   C7 s          0.0004315    0.0156536   -0.0008987    0.0029538   -0.0021288
 57   C7 px         0.0005620   -0.0022653    0.0004640   -0.0003174   -0.0002465
 58   C7 py         0.0001532   -0.0016750   -0.0000723   -0.0003660   -0.0000735
 59   C7 pz         0.0000007   -0.0000018    0.0000008   -0.0000002   -0.0000010
 60   C7 s          0.0077172   -0.0617119   -0.0029457    0.0082750    0.0101364
 61   C7 px        -0.0057674    0.0213600    0.0035478   -0.0003770    0.0058416
 62   C7 py        -0.0075771    0.0337394    0.0069778   -0.0066271   -0.0035016
 63   C7 pz         0.0000011    0.0000085    0.0000027    0.0000036    0.0000097
 64   C8 s         -0.0008208   -0.0008885   -0.0029509    0.0003213    0.0019756
 65   C8 s         -0.0008874   -0.0009632   -0.0013867    0.0001464    0.0008410
 66   C8 px         0.0002614   -0.0002317   -0.0000096   -0.0000922   -0.0011216
 67   C8 py        -0.0000820   -0.0001070   -0.0001282    0.0000124    0.0003269
 68   C8 pz         0.0000003   -0.0000012    0.0000006   -0.0000008   -0.0000002
 69   C8 s          0.0186927    0.0202977    0.0255797   -0.0026201   -0.0128922
 70   C8 px         0.0182421   -0.0167382    0.0022665    0.0143516    0.0060639
 71   C8 py        -0.0018725   -0.0037032   -0.0164300    0.0022470   -0.0007922
 72   C8 pz         0.0000030   -0.0000105   -0.0000011    0.0000095    0.0000069
 73   C9 s          0.0981508    0.0101250   -0.0141965   -0.0213542   -0.0665807
 74   C9 s          0.0157464    0.0016975   -0.0014491   -0.0027737   -0.0085106
 75   C9 px         0.0024412   -0.0003854   -0.0005098   -0.0002468   -0.0011842
 76   C9 py        -0.0014871   -0.0000130   -0.0000421    0.0003553    0.0010013
 77   C9 pz         0.0000012    0.0000004    0.0000002    0.0000003    0.0000003
 78   C9 s         -0.0621627    0.0029126   -0.0049150   -0.0075959    0.0062904
 79   C9 px        -0.0245360    0.0044381   -0.0043554   -0.0002092    0.0041992
 80   C9 py         0.0322117   -0.0045699    0.0080329    0.0051665   -0.0028503
 81   C9 pz        -0.0000141    0.0000041   -0.0000028   -0.0000064   -0.0000020
 82   C10 s        -0.9479036   -0.0372403    0.1303250    0.1076583    0.1768436
 83   C10 s        -0.1082884   -0.0039930    0.0124654    0.0102708    0.0164147
 84   C10 px        0.0014289    0.0002194   -0.0001110    0.0000658   -0.0000722
 85   C10 py        0.0014926   -0.0000108   -0.0002177   -0.0000628    0.0018751
 86   C10 pz        0.0000004   -0.0000000   -0.0000002   -0.0000004   -0.0000005
 87   C10 s         0.1256198   -0.0015004    0.0137784    0.0089776    0.0032743
 88   C10 px       -0.0358000    0.0021312   -0.0095408   -0.0068794    0.0006777
 89   C10 py       -0.0229267   -0.0008747   -0.0091518   -0.0078111   -0.0118034
 90   C10 pz       -0.0000011   -0.0000004    0.0000020    0.0000035    0.0000034
 91   C11 s        -0.0014103    0.0020001   -0.0016231    0.0003664   -0.0039340
 92   C11 s        -0.0001500    0.0003531   -0.0002011    0.0001486   -0.0008406
 93   C11 px        0.0000128   -0.0001032   -0.0002673   -0.0001106   -0.0002937
 94   C11 py        0.0003260   -0.0001491    0.0002123    0.0000442    0.0001270
 95   C11 pz       -0.0000006    0.0000002   -0.0000004   -0.0000002   -0.0000005
 96   C11 s        -0.0096510    0.0042949   -0.0030447   -0.0031422    0.0033336
 97   C11 px        0.0018283   -0.0003874   -0.0001245    0.0012811   -0.0002203
 98   C11 py        0.0050713   -0.0012810    0.0013256    0.0011653   -0.0020142
 99   C11 pz       -0.0000050    0.0000011   -0.0000011    0.0000005    0.0000034
 100  C12 s         0.0020894   -0.0012065   -0.0016083   -0.0000241    0.0009164
 101  C12 s         0.0003637   -0.0001153   -0.0002176   -0.0001043    0.0002053
 102  C12 px        0.0001171   -0.0000301    0.0002218   -0.0001509    0.0000668
 103  C12 py       -0.0001653    0.0003128    0.0002157   -0.0000972   -0.0000523
 104  C12 pz        0.0000005   -0.0000001   -0.0000000   -0.0000001    0.0000002
 105  C12 s         0.0050285   -0.0093299   -0.0023132    0.0036613   -0.0013140
 106  C12 px        0.0006751   -0.0022174    0.0002859    0.0013273   -0.0019923
 107  C12 py       -0.0016279    0.0047945    0.0010840   -0.0012731    0.0017771
 108  C12 pz        0.0000012   -0.0000082   -0.0000010    0.0000021   -0.0000039
 109  H13 s        -0.0009956    0.0000867   -0.0012678   -0.0008620   -0.0023709
 110  H13 s        -0.0045396    0.0002706   -0.0014514   -0.0002861    0.0094781
 111  H14 s         0.0008859   -0.0001802    0.0017537    0.0018852   -0.0014299
 112  H14 s         0.0035610   -0.0008781   -0.0020289   -0.0012251    0.0062321
 113  H15 s        -0.0002462    0.0008833    0.0013454   -0.0022083    0.0000740
 114  H15 s        -0.0011497    0.0034795   -0.0018106    0.0016692   -0.0012426
 115  H16 s         0.0001660   -0.0010063   -0.0010496    0.0010728    0.0002533
 116  H16 s         0.0006292   -0.0044895   -0.0014032    0.0006384   -0.0006646
 117  H17 s        -0.0001279    0.0032419    0.0000332   -0.0000796   -0.0001595
 118  H17 s        -0.0003964   -0.0023261    0.0035561   -0.0044288   -0.0012724
 119  H18 s         0.0032416    0.0001246    0.0000622    0.0000784   -0.0008642
 120  H18 s        -0.0023456   -0.0005845    0.0043898    0.0036311    0.0041901
 121  H19 s        -0.0003160   -0.0000809    0.0000346   -0.0000524   -0.0000125
 122  H19 s        -0.0010761   -0.0000839   -0.0001539   -0.0004090    0.0004639
 123  H20 s        -0.0000542   -0.0003218    0.0000438    0.0000411   -0.0002835
 124  H20 s         0.0000046   -0.0010756   -0.0000708    0.0004232   -0.0008774

            Ene   -10.1397752  -10.1396678  -10.1381155  -10.1380044  -10.1365751
            Sym             A            A            A            A            A
            Occ             2            2            2            2            2


                            6            7            8            9           10

 1    C1 s          0.0900589    0.0693447    0.0449605    0.0358286    0.0058736
 2    C1 s          0.0093806    0.0067853    0.0042790    0.0032893    0.0003344
 3    C1 px        -0.0000787    0.0009234    0.0002411    0.0004885    0.0002218
 4    C1 py         0.0001060    0.0007131   -0.0007204   -0.0004184   -0.0004107
 5    C1 pz        -0.0000001   -0.0000003    0.0000004   -0.0000002   -0.0000002
 6    C1 s         -0.0022680   -0.0052932   -0.0059570   -0.0060080   -0.0033711
 7    C1 px        -0.0014483    0.0004376    0.0030358    0.0016739   -0.0017921
 8    C1 py        -0.0003150   -0.0034043    0.0002966    0.0002341   -0.0015656
 9    C1 pz         0.0000003    0.0000011   -0.0000007   -0.0000002    0.0000001
 10   C2 s          0.0221957    0.1982584    0.0262117    0.0424695    0.0016767
 11   C2 s          0.0022325    0.0180350    0.0021978    0.0032947    0.0002157
 12   C2 px         0.0000359    0.0014244   -0.0002653    0.0002404    0.0000720
 13   C2 py         0.0001945   -0.0006844   -0.0001873   -0.0005520   -0.0001997
 14   C2 pz        -0.0000002   -0.0000001    0.0000004   -0.0000005   -0.0000000
 15   C2 s         -0.0028918    0.0078342    0.0084787    0.0008918   -0.0027605
 16   C2 px        -0.0005605   -0.0088619   -0.0016676    0.0007611    0.0001814
 17   C2 py        -0.0014817    0.0082794    0.0040590    0.0050854   -0.0006636
 18   C2 pz         0.0000022   -0.0000022   -0.0000008   -0.0000005    0.0000000
 19   C3 s         -0.1791906    0.9285054    0.0686079    0.0973982    0.0004106
 20   C3 s         -0.0221132    0.1040697    0.0077950    0.0111602    0.0000203
 21   C3 px         0.0016546   -0.0000452   -0.0000110    0.0000275   -0.0004366
 22   C3 py         0.0002763    0.0011902   -0.0001667   -0.0004202   -0.0000282
 23   C3 pz         0.0000015   -0.0000012   -0.0000000    0.0000004   -0.0000001
 24   C3 s          0.0255979   -0.1056566   -0.0119820   -0.0201612    0.0001352
 25   C3 px        -0.0059592    0.0011672   -0.0115419    0.0057711    0.0028225
 26   C3 py         0.0005804   -0.0210716   -0.0046906   -0.0076654    0.0003170
 27   C3 pz        -0.0000066    0.0000124   -0.0000011    0.0000086    0.0000005
 28   C4 s          0.4233669    0.1994546    0.0253947    0.0429181   -0.0013695
 29   C4 s          0.0439829    0.0181649    0.0020138    0.0033918   -0.0001996
 30   C4 px         0.0016831   -0.0013384   -0.0003810    0.0001120    0.0000510
 31   C4 py        -0.0004145   -0.0007983   -0.0003665   -0.0004758    0.0001964
 32   C4 pz         0.0000013   -0.0000004   -0.0000005    0.0000005   -0.0000000
 33   C4 s         -0.0184150    0.0081033   -0.0045258    0.0069041    0.0027866
 34   C4 px        -0.0106541    0.0081739   -0.0014375    0.0000983    0.0002294
 35   C4 py         0.0019224    0.0090768    0.0015014    0.0062313    0.0006083
 36   C4 pz        -0.0000085   -0.0000004   -0.0000003   -0.0000052    0.0000001
 37   C5 s          0.8445067    0.0723894    0.0038321    0.0543190   -0.0053919
 38   C5 s          0.0908890    0.0071012    0.0003008    0.0050700   -0.0003185
 39   C5 px         0.0002942   -0.0009782   -0.0002722   -0.0004080    0.0001781
 40   C5 py         0.0005510    0.0006111    0.0001477   -0.0008711    0.0004100
 41   C5 pz        -0.0000006   -0.0000007   -0.0000004   -0.0000002    0.0000002
 42   C5 s         -0.0580988   -0.0055594   -0.0010959   -0.0082079    0.0034771
 43   C5 px        -0.0042132   -0.0002563    0.0006709   -0.0034199   -0.0018339
 44   C5 py        -0.0051545   -0.0034398   -0.0000871    0.0001567    0.0014666
 45   C5 pz         0.0000015    0.0000007   -0.0000003   -0.0000017   -0.0000040
 46   C6 s          0.1811550    0.0047606   -0.0291356    0.1066191   -0.0058041
 47   C6 s          0.0168960    0.0003150   -0.0025381    0.0075766   -0.0004648
 48   C6 px        -0.0000812    0.0001468    0.0005211   -0.0018549    0.0000084
 49   C6 py         0.0018473    0.0004267    0.0005205   -0.0006509   -0.0003009
 50   C6 pz        -0.0000017    0.0000004   -0.0000002   -0.0000023   -0.0000001
 51   C6 s          0.0028094    0.0052227   -0.0009642    0.0158404   -0.0069727
 52   C6 px        -0.0000276    0.0009985   -0.0010789    0.0141299   -0.0037877
 53   C6 py        -0.0113679   -0.0013234   -0.0013800    0.0009177    0.0054900
 54   C6 pz         0.0000087    0.0000022    0.0000029    0.0000156   -0.0000101
 55   C7 s         -0.0685078   -0.0849846   -0.3388427    0.9077345   -0.0723627
 56   C7 s         -0.0089511   -0.0096535   -0.0392084    0.1020133   -0.0063297
 57   C7 px         0.0010876   -0.0001782   -0.0010727    0.0009683   -0.0000554
 58   C7 py         0.0011171    0.0005417    0.0001041   -0.0002509    0.0003510
 59   C7 pz         0.0000003   -0.0000000   -0.0000001   -0.0000002   -0.0000000
 60   C7 s          0.0085228    0.0103414    0.0425274   -0.1012750   -0.0179881
 61   C7 px        -0.0028504    0.0069573    0.0114871   -0.0144804   -0.0085468
 62   C7 py        -0.0040948    0.0032429   -0.0013400    0.0084545   -0.0223123
 63   C7 pz        -0.0000015    0.0000066    0.0000094   -0.0000066    0.0000079
 64   C8 s          0.0024767   -0.0192942   -0.0167557   -0.0350537   -0.0002588
 65   C8 s          0.0010528   -0.0060771   -0.0049942   -0.0103805   -0.0000729
 66   C8 px         0.0008743   -0.0000847   -0.0029998    0.0014556   -0.0011105
 67   C8 py         0.0004898    0.0039015   -0.0005396   -0.0010299   -0.0000909
 68   C8 pz         0.0000002   -0.0000010   -0.0000009    0.0000025   -0.0000006
 69   C8 s         -0.0159909    0.0320992    0.0291441    0.0607360   -0.0001090
 70   C8 px        -0.0048666    0.0007396    0.0345107   -0.0164735    0.0057345
 71   C8 py        -0.0014994   -0.0388416    0.0040989    0.0069591    0.0004204
 72   C8 pz         0.0000022    0.0000096    0.0000100   -0.0000298    0.0000032
 73   C9 s         -0.0283156   -0.1166404    0.9097189    0.3235821    0.0745129
 74   C9 s         -0.0042376   -0.0132522    0.1029295    0.0355018    0.0064350
 75   C9 px        -0.0000051    0.0001988   -0.0014032    0.0002050    0.0000164
 76   C9 py         0.0001661    0.0005641   -0.0003567   -0.0000784   -0.0004231
 77   C9 pz        -0.0000003   -0.0000002   -0.0000014    0.0000000   -0.0000001
 78   C9 s          0.0119456    0.0140721   -0.1043183   -0.0324846    0.0185160
 79   C9 px        -0.0047505   -0.0079758    0.0175072    0.0002263   -0.0108469
 80   C9 py        -0.0046800    0.0023566    0.0090349    0.0044810    0.0221921
 81   C9 pz         0.0000010   -0.0000001    0.0000087    0.0000034   -0.0000179
 82   C10 s         0.0142900    0.0007076    0.1024438    0.0458856    0.0062634
 83   C10 s         0.0013861   -0.0000142    0.0076439    0.0029039    0.0004844
 84   C10 px       -0.0000246   -0.0002425    0.0018104    0.0007899   -0.0000056
 85   C10 py        0.0001114    0.0004367   -0.0006604    0.0000408    0.0002857
 86   C10 pz       -0.0000000    0.0000001    0.0000004   -0.0000005    0.0000004
 87   C10 s        -0.0006787    0.0048907    0.0128523    0.0093403    0.0071989
 88   C10 px        0.0016133   -0.0005640   -0.0116291   -0.0081730   -0.0035161
 89   C10 py        0.0011189   -0.0014100    0.0005237   -0.0011624   -0.0057520
 90   C10 pz       -0.0000003   -0.0000012   -0.0000038    0.0000006    0.0000027
 91   C11 s         0.0001357    0.0021599   -0.0984889   -0.0373614    0.7142691
 92   C11 s         0.0000339    0.0000803   -0.0135582   -0.0050546    0.0834225
 93   C11 px       -0.0001282   -0.0000485   -0.0001630    0.0003689   -0.0022566
 94   C11 py       -0.0000313    0.0002379    0.0007549    0.0003726   -0.0015714
 95   C11 pz       -0.0000001   -0.0000005   -0.0000007    0.0000004   -0.0000002
 96   C11 s        -0.0006727   -0.0037502    0.0341451    0.0003184   -0.1043950
 97   C11 px        0.0018183   -0.0007953   -0.0052595    0.0033843    0.0281009
 98   C11 py        0.0015843    0.0008293   -0.0165851   -0.0012179    0.0278345
 99   C11 pz       -0.0000000   -0.0000007    0.0000072    0.0000007   -0.0000025
 100  C12 s        -0.0040056   -0.0008445    0.0350486   -0.1023917   -0.6722833
 101  C12 s        -0.0008439   -0.0003448    0.0048543   -0.0139733   -0.0789607
 102  C12 px        0.0003080    0.0000418   -0.0003719   -0.0001873   -0.0024256
 103  C12 py        0.0001454    0.0002654   -0.0002213    0.0008083    0.0013277
 104  C12 pz        0.0000002   -0.0000006    0.0000003   -0.0000005   -0.0000026
 105  C12 s         0.0032188   -0.0023603   -0.0217004    0.0268557    0.1019811
 106  C12 px       -0.0000478    0.0010533   -0.0067081    0.0030652    0.0304761
 107  C12 py       -0.0016984    0.0002445    0.0091535   -0.0133946   -0.0248188
 108  C12 pz        0.0000011    0.0000016   -0.0000115    0.0000090    0.0000369
 109  H13 s        -0.0002717   -0.0005033   -0.0003988   -0.0002011    0.0002411
 110  H13 s         0.0014274    0.0011341    0.0007572    0.0010157    0.0009898
 111  H14 s        -0.0002447   -0.0008949   -0.0001874    0.0001491    0.0000368
 112  H14 s         0.0001095    0.0041364    0.0011141    0.0024218    0.0000460
 113  H15 s        -0.0014232   -0.0009065    0.0001905   -0.0000271   -0.0000518
 114  H15 s         0.0060586    0.0041526    0.0013279    0.0023183   -0.0000568
 115  H16 s        -0.0023879   -0.0005212    0.0000737   -0.0004205   -0.0002424
 116  H16 s         0.0095608    0.0011654    0.0003755    0.0011841   -0.0009329
 117  H17 s        -0.0009329   -0.0001748    0.0003765   -0.0006715   -0.0005836
 118  H17 s         0.0040923    0.0003885    0.0000729    0.0040695   -0.0015722
 119  H18 s        -0.0003551   -0.0001440   -0.0007675   -0.0001329    0.0005783
 120  H18 s        -0.0003569    0.0002950    0.0031192    0.0026688    0.0016308
 121  H19 s        -0.0002930    0.0001856    0.0001869   -0.0001484   -0.0024765
 122  H19 s        -0.0007985    0.0005164    0.0022219   -0.0001914   -0.0001586
 123  H20 s        -0.0000777    0.0001961   -0.0002301    0.0000490    0.0023103
 124  H20 s         0.0002829    0.0006186   -0.0015363    0.0015494    0.0005931

            Ene   -10.1365318  -10.1344688  -10.1339429  -10.1337078  -10.1300370
            Sym             A            A            A            A            A
            Occ             2            2            2            2            2


                           11           12           13           14           15

 1    C1 s          0.0079595    0.0024892    0.0413811    0.0954897    0.0489954
 2    C1 s          0.0002084   -0.0005550   -0.0472273   -0.1035688   -0.0529362
 3    C1 px         0.0001828    0.0002931    0.0282251    0.0385219    0.0309850
 4    C1 py        -0.0003133   -0.0000502   -0.0132386   -0.0303054    0.0100629
 5    C1 pz        -0.0000002    0.0000004   -0.0000018   -0.0000028   -0.0000055
 6    C1 s          0.0017660    0.0097761   -0.0609778   -0.1831931   -0.0931405
 7    C1 px        -0.0015649   -0.0040865   -0.0033569    0.0078023    0.0060005
 8    C1 py         0.0008184    0.0018365    0.0009977   -0.0028823   -0.0048756
 9    C1 pz         0.0000005   -0.0000004    0.0000002   -0.0000023   -0.0000003
 10   C2 s          0.0048170    0.0031755    0.0508334    0.0674934    0.0810457
 11   C2 s          0.0001843   -0.0002689   -0.0561572   -0.0722162   -0.0871741
 12   C2 px         0.0000762    0.0005558    0.0178072   -0.0231507    0.0261290
 13   C2 py        -0.0001597   -0.0003932   -0.0329507   -0.0431711   -0.0302776
 14   C2 pz        -0.0000001    0.0000003    0.0000110    0.0000134    0.0000156
 15   C2 s          0.0006593   -0.0010989   -0.0915004   -0.1412028   -0.1623154
 16   C2 px        -0.0018531   -0.0048648   -0.0007478    0.0036363    0.0021086
 17   C2 py        -0.0012009   -0.0053235   -0.0100885   -0.0187500   -0.0121566
 18   C2 pz         0.0000002    0.0000031    0.0000077    0.0000087    0.0000060
 19   C3 s          0.0113278    0.0237580    0.0916408    0.0031651    0.1050886
 20   C3 s          0.0003727   -0.0021902   -0.0998812   -0.0034265   -0.1137208
 21   C3 px         0.0000303    0.0001301    0.0016636   -0.0814235    0.0016115
 22   C3 py        -0.0003639   -0.0030717   -0.0393822   -0.0029496    0.0175015
 23   C3 pz        -0.0000002    0.0000013    0.0000372   -0.0000222    0.0000249
 24   C3 s          0.0051376    0.0307570   -0.1659849   -0.0065762   -0.2192538
 25   C3 px        -0.0004169   -0.0011582    0.0004838   -0.0104167    0.0007185
 26   C3 py         0.0072361    0.0268291   -0.0124995   -0.0006845   -0.0080710
 27   C3 pz        -0.0000004   -0.0000162    0.0000009   -0.0000068    0.0000169
 28   C4 s          0.0049061    0.0031774    0.0508540   -0.0625980    0.0848551
 29   C4 s          0.0001982   -0.0002669   -0.0561780    0.0669543   -0.0912529
 30   C4 px        -0.0000659   -0.0005215   -0.0149281   -0.0281459   -0.0218090
 31   C4 py        -0.0001785   -0.0004388   -0.0343488    0.0390714   -0.0347053
 32   C4 pz        -0.0000000   -0.0000006    0.0000189   -0.0000549    0.0000245
 33   C4 s          0.0004575   -0.0011294   -0.0915754    0.1313567   -0.1701879
 34   C4 px         0.0019217    0.0052812    0.0015717    0.0019646   -0.0011464
 35   C4 py        -0.0011003   -0.0049103   -0.0100049    0.0182089   -0.0133089
 36   C4 pz         0.0000014    0.0000095    0.0000141   -0.0000113    0.0000152
 37   C5 s          0.0083210    0.0024879    0.0414407   -0.0925184    0.0545464
 38   C5 s          0.0002272   -0.0005546   -0.0472938    0.1003553   -0.0589519
 39   C5 px        -0.0001664   -0.0002865   -0.0270379    0.0339242   -0.0337822
 40   C5 py        -0.0003536   -0.0000738   -0.0156087    0.0338649    0.0054364
 41   C5 pz        -0.0000001    0.0000000   -0.0000114    0.0000008   -0.0000277
 42   C5 s          0.0015981    0.0098045   -0.0610314    0.1775705   -0.1038731
 43   C5 px         0.0016113    0.0039169    0.0032483    0.0072323   -0.0060405
 44   C5 py         0.0008875    0.0021910    0.0013170    0.0032082   -0.0055923
 45   C5 pz         0.0000017    0.0000006    0.0000050   -0.0000044   -0.0000010
 46   C6 s          0.0107920    0.0028541    0.0498854   -0.0979657    0.0142745
 47   C6 s          0.0004827    0.0000220   -0.0536648    0.1047217   -0.0166603
 48   C6 px        -0.0002853   -0.0007633   -0.0372302    0.0426505    0.0047429
 49   C6 py        -0.0003207   -0.0003901    0.0076593   -0.0300665    0.0362052
 50   C6 pz        -0.0000003   -0.0000004   -0.0000483    0.0000712   -0.0000189
 51   C6 s          0.0039072   -0.0046676   -0.1045455    0.2135675   -0.0160368
 52   C6 px         0.0035504   -0.0034853   -0.0182849    0.0245119    0.0006426
 53   C6 py         0.0004450    0.0066661    0.0060000   -0.0071212    0.0097182
 54   C6 pz         0.0000057   -0.0000073   -0.0000295    0.0000408   -0.0000006
 55   C7 s          0.0774914    0.0254658    0.0910501   -0.0726506   -0.0555152
 56   C7 s          0.0063470   -0.0016030   -0.0999134    0.0779668    0.0590587
 57   C7 px        -0.0005571   -0.0018889   -0.0391563   -0.0352158    0.0491309
 58   C7 py        -0.0012519    0.0014135    0.0248640   -0.0397520    0.0486363
 59   C7 pz         0.0000004   -0.0000023   -0.0000233   -0.0000303    0.0000057
 60   C7 s          0.0053179    0.0304273   -0.1473234    0.1367104    0.1138883
 61   C7 px         0.0047925    0.0162725   -0.0238364    0.0172648    0.0343309
 62   C7 py         0.0127354   -0.0154392   -0.0031130   -0.0082621    0.0082789
 63   C7 pz        -0.0000047    0.0000159   -0.0000189    0.0000079    0.0000230
 64   C8 s         -0.0115632    0.9852655    0.1245635   -0.0002547   -0.0124547
 65   C8 s         -0.0031260    0.1122134   -0.1367134    0.0002937    0.0142031
 66   C8 px         0.0001048   -0.0000107    0.0004905   -0.0850595   -0.0024592
 67   C8 py        -0.0016116    0.0001977   -0.0098146   -0.0001819    0.1165599
 68   C8 pz         0.0000009   -0.0000038    0.0000698   -0.0000453   -0.0000606
 69   C8 s          0.0000935   -0.1262016   -0.1934066   -0.0000171    0.0058085
 70   C8 px        -0.0005217    0.0000550    0.0004202   -0.0093474    0.0001942
 71   C8 py         0.0083242    0.0002347   -0.0074962   -0.0003771    0.0006327
 72   C8 pz        -0.0000037    0.0000318    0.0000461    0.0000001   -0.0000040
 73   C9 s          0.0713138    0.0252744    0.0909258    0.0693353   -0.0596016
 74   C9 s          0.0057692   -0.0016205   -0.0997751   -0.0744441    0.0634460
 75   C9 px         0.0006633    0.0017586    0.0369382   -0.0413266   -0.0507346
 76   C9 py        -0.0011733    0.0015655    0.0281179    0.0392354    0.0419509
 77   C9 pz         0.0000011   -0.0000002    0.0000213   -0.0000094   -0.0000478
 78   C9 s          0.0043516    0.0303806   -0.1472296   -0.1299538    0.1216415
 79   C9 px        -0.0052387   -0.0148573    0.0240564    0.0145070   -0.0358196
 80   C9 py         0.0110116   -0.0166999   -0.0009411    0.0100199    0.0046739
 81   C9 pz        -0.0000096   -0.0000027    0.0000067    0.0000042   -0.0000170
 82   C10 s         0.0102526    0.0028434    0.0497891    0.0985648    0.0085215
 83   C10 s         0.0004415    0.0000196   -0.0535605   -0.1054404   -0.0105077
 84   C10 px        0.0003074    0.0007924    0.0363957    0.0394518   -0.0100808
 85   C10 py       -0.0003080   -0.0003234    0.0107625    0.0355497    0.0335729
 86   C10 pz        0.0000002    0.0000003    0.0000098    0.0000144   -0.0000079
 87   C10 s         0.0034979   -0.0046607   -0.1043204   -0.2140406   -0.0035821
 88   C10 px       -0.0033736    0.0029107    0.0176721    0.0237009   -0.0028237
 89   C10 py        0.0004462    0.0068965    0.0074524    0.0097251    0.0091178
 90   C10 pz        0.0000013    0.0000001    0.0000046    0.0000100    0.0000002
 91   C11 s         0.6717364    0.0049618    0.0542410    0.0112409   -0.0960120
 92   C11 s         0.0710348   -0.0003882   -0.0599553   -0.0097436    0.1024201
 93   C11 px        0.0008404   -0.0002550    0.0249952   -0.0159721   -0.0525915
 94   C11 py       -0.0006083    0.0005047    0.0374818    0.0115344   -0.0407262
 95   C11 pz        0.0000007   -0.0000007   -0.0000055   -0.0000133   -0.0000109
 96   C11 s        -0.0362038    0.0032936   -0.0860452   -0.0265623    0.1852173
 97   C11 px       -0.0030815    0.0028255    0.0058723    0.0028030   -0.0134959
 98   C11 py        0.0070235   -0.0004170    0.0072099    0.0048923   -0.0219477
 99   C11 pz       -0.0000058    0.0000033    0.0000029   -0.0000012    0.0000035
 100  C12 s         0.7133231    0.0049847    0.0542910   -0.0168179   -0.0952453
 101  C12 s         0.0758998   -0.0003869   -0.0600130    0.0157010    0.1017359
 102  C12 px       -0.0006427    0.0002104   -0.0280584   -0.0117099    0.0566019
 103  C12 py       -0.0007572    0.0005250    0.0352774   -0.0149453   -0.0353544
 104  C12 pz       -0.0000002   -0.0000005   -0.0000374   -0.0000012    0.0000537
 105  C12 s        -0.0423211    0.0033037   -0.0860912    0.0372980    0.1834120
 106  C12 px        0.0006686   -0.0028033   -0.0064881    0.0040894    0.0150549
 107  C12 py        0.0087159   -0.0006733    0.0066678   -0.0058337   -0.0204083
 108  C12 pz       -0.0000048    0.0000001   -0.0000046    0.0000078    0.0000193
 109  H13 s        -0.0000217   -0.0001067   -0.0119343   -0.0358745   -0.0189704
 110  H13 s         0.0010171    0.0012155    0.0064603    0.0003368   -0.0009943
 111  H14 s        -0.0002512   -0.0006114   -0.0159841   -0.0240069   -0.0333625
 112  H14 s        -0.0001373   -0.0008102    0.0017360   -0.0018954   -0.0044178
 113  H15 s        -0.0002493   -0.0006117   -0.0159897    0.0220140   -0.0347121
 114  H15 s        -0.0001390   -0.0008140    0.0017392    0.0016314   -0.0045031
 115  H16 s        -0.0000072   -0.0001071   -0.0119538    0.0347306   -0.0210623
 116  H16 s         0.0010804    0.0012152    0.0064655   -0.0003847   -0.0009854
 117  H17 s        -0.0000617   -0.0006874   -0.0154766    0.0369832   -0.0039669
 118  H17 s         0.0010932   -0.0011637   -0.0002667    0.0038221    0.0003170
 119  H18 s        -0.0000903   -0.0006850   -0.0154308   -0.0371133   -0.0018241
 120  H18 s         0.0010069   -0.0011555   -0.0002486   -0.0037990    0.0005135
 121  H19 s        -0.0027062   -0.0005434   -0.0154037   -0.0056200    0.0333727
 122  H19 s         0.0072142   -0.0002052    0.0018857   -0.0039732    0.0052483
 123  H20 s        -0.0028465   -0.0005447   -0.0154264    0.0075793    0.0329963
 124  H20 s         0.0072062   -0.0002060    0.0018782    0.0042896    0.0049884

            Ene   -10.1287681  -10.1095165   -0.9042100   -0.8305111   -0.8302846
            Sym             A            A            A            A            A
            Occ             2            2            2            2            2


                           16           17           18           19           20

 1    C1 s          0.0817681    0.0648793    0.0543114    0.0600693    0.0753238
 2    C1 s         -0.0874553   -0.0679458   -0.0586209   -0.0627495   -0.0781071
 3    C1 px        -0.0106186    0.0376527    0.0142002   -0.0746617    0.0008247
 4    C1 py        -0.0631734    0.0692135    0.0364972   -0.0879548    0.0802561
 5    C1 pz         0.0000067   -0.0000108   -0.0000032    0.0000198   -0.0000019
 6    C1 s         -0.1875200   -0.1671686   -0.1317327   -0.1771339   -0.2322004
 7    C1 px         0.0033990    0.0144388   -0.0084790   -0.0221117    0.0075807
 8    C1 py        -0.0062480    0.0072312    0.0065072   -0.0233223    0.0214484
 9    C1 pz        -0.0000014   -0.0000033    0.0000029    0.0000062   -0.0000002
 10   C2 s         -0.0304657    0.0998704    0.0695668   -0.0754036    0.0140533
 11   C2 s          0.0320853   -0.1068055   -0.0736915    0.0789835   -0.0150828
 12   C2 px        -0.0827557   -0.0323924   -0.0214168   -0.0381340   -0.1365828
 13   C2 py        -0.0075183   -0.0246164    0.0074074    0.0029847   -0.0073918
 14   C2 pz         0.0000015    0.0000220    0.0000171   -0.0000071    0.0000224
 15   C2 s          0.0736517   -0.2494639   -0.1758359    0.2268860   -0.0361278
 16   C2 px        -0.0101100   -0.0035429   -0.0043573   -0.0085488   -0.0482718
 17   C2 py         0.0023694   -0.0072108    0.0020348    0.0218402    0.0033937
 18   C2 pz         0.0000003    0.0000154    0.0000120   -0.0000090    0.0000201
 19   C3 s         -0.1066460    0.0000044   -0.0038888    0.0000549   -0.0806867
 20   C3 s          0.1136819   -0.0000114    0.0036683   -0.0000580    0.0867412
 21   C3 px        -0.0001169   -0.0986385   -0.0045659    0.1444439    0.0020646
 22   C3 py         0.0033680   -0.0038032    0.1138081    0.0060833   -0.0481233
 23   C3 pz        -0.0000144   -0.0000125   -0.0000095    0.0000247    0.0000112
 24   C3 s          0.2633500    0.0000280    0.0200995   -0.0001865    0.2282485
 25   C3 px        -0.0003225   -0.0024577   -0.0013590    0.0382479    0.0008299
 26   C3 py         0.0066900   -0.0000447    0.0317755    0.0016148   -0.0166077
 27   C3 pz        -0.0000071    0.0000061    0.0000018    0.0000006   -0.0000278
 28   C4 s         -0.0304213   -0.0994980    0.0701249    0.0754311    0.0139949
 29   C4 s          0.0320328    0.1064103   -0.0742879   -0.0790081   -0.0150263
 30   C4 px         0.0830681   -0.0343189    0.0209736   -0.0378418    0.1365838
 31   C4 py        -0.0005210    0.0218103    0.0091012   -0.0061558    0.0041594
 32   C4 pz         0.0000614   -0.0000524    0.0000370   -0.0000316    0.0001045
 33   C4 s          0.0735343    0.2485052   -0.1772440   -0.2269859   -0.0358328
 34   C4 px         0.0098425   -0.0041935    0.0042189   -0.0066773    0.0478300
 35   C4 py         0.0032251    0.0068936    0.0023805   -0.0224989    0.0074941
 36   C4 pz        -0.0000008   -0.0000218    0.0000152    0.0000132    0.0000416
 37   C5 s          0.0817308   -0.0645683    0.0546639   -0.0601537    0.0751643
 38   C5 s         -0.0874137    0.0676105   -0.0589936    0.0628367   -0.0779385
 39   C5 px         0.0158616    0.0432823   -0.0174746   -0.0817963   -0.0076207
 40   C5 py        -0.0619982   -0.0656923    0.0356038    0.0813872    0.0798242
 41   C5 pz         0.0000662    0.0000766   -0.0000295   -0.0001547   -0.0000569
 42   C5 s         -0.1874614    0.1664246   -0.1326303    0.1774215   -0.2317505
 43   C5 px        -0.0028929    0.0150392    0.0078184   -0.0239461   -0.0094155
 44   C5 py        -0.0065037   -0.0059638    0.0072836    0.0214011    0.0206959
 45   C5 pz         0.0000120    0.0000171    0.0000119   -0.0000512   -0.0000167
 46   C6 s          0.1123849    0.0615876   -0.0108000   -0.0680526   -0.0719642
 47   C6 s         -0.1206730   -0.0637494    0.0124076    0.0718013    0.0759058
 48   C6 px        -0.0143984   -0.0431407    0.0353058   -0.0747047    0.0106597
 49   C6 py         0.0336036   -0.0641135    0.0275252   -0.0759315    0.0820487
 50   C6 pz        -0.0000374   -0.0000076    0.0000269   -0.0000590   -0.0000583
 51   C6 s         -0.2673306   -0.1727070    0.0232151    0.2025813    0.2173130
 52   C6 px        -0.0090831   -0.0231387    0.0071939   -0.0234061    0.0077591
 53   C6 py         0.0101801   -0.0087397   -0.0066000   -0.0253773    0.0216796
 54   C6 pz        -0.0000159   -0.0000294    0.0000121   -0.0000274   -0.0000187
 55   C7 s          0.0249735    0.0929263   -0.0426206    0.0712219   -0.0022545
 56   C7 s         -0.0278252   -0.0978903    0.0452199   -0.0747269    0.0022388
 57   C7 px         0.0854285    0.0414217    0.0243886   -0.0392436   -0.1531132
 58   C7 py         0.0281354    0.0043786   -0.0909568   -0.0232180    0.0088269
 59   C7 pz         0.0000820    0.0000650    0.0000675   -0.0000292   -0.0001842
 60   C7 s         -0.0580041   -0.2199164    0.1053088   -0.1993041    0.0050916
 61   C7 px         0.0057128   -0.0117942   -0.0044618   -0.0029031   -0.0587073
 62   C7 py         0.0014605   -0.0004052   -0.0164270    0.0171134   -0.0037823
 63   C7 pz         0.0000154    0.0000084    0.0000035   -0.0000012   -0.0000733
 64   C8 s         -0.0562009   -0.0004209   -0.1149518   -0.0000335    0.0605087
 65   C8 s          0.0600656    0.0004466    0.1203290    0.0000354   -0.0626122
 66   C8 px         0.0018613    0.0659866   -0.0002497    0.1174579    0.0054964
 67   C8 py        -0.0471928    0.0029003   -0.0005792    0.0050723   -0.1243679
 68   C8 pz         0.0000106    0.0000484   -0.0000465    0.0000558    0.0000741
 69   C8 s          0.1218405    0.0009585    0.2800562    0.0000499   -0.1838821
 70   C8 px        -0.0008994   -0.0113698   -0.0002211    0.0309123    0.0022673
 71   C8 py         0.0226944   -0.0004880    0.0054703    0.0012964   -0.0542655
 72   C8 pz        -0.0000297   -0.0000068   -0.0000473    0.0000170    0.0000669
 73   C9 s          0.0251263   -0.0932004   -0.0420572   -0.0712432   -0.0024824
 74   C9 s         -0.0279864    0.0981795    0.0446323    0.0747512    0.0024705
 75   C9 px        -0.0874973    0.0412432   -0.0168289   -0.0412176    0.1517592
 76   C9 py         0.0209126   -0.0015204   -0.0925777    0.0197119    0.0215550
 77   C9 pz        -0.0000130   -0.0000057    0.0000477   -0.0000128    0.0000051
 78   C9 s         -0.0584616    0.2206683    0.1039394    0.1993937    0.0058755
 79   C9 px        -0.0057757   -0.0119560    0.0058693   -0.0016238    0.0587298
 80   C9 py         0.0011320   -0.0007652   -0.0159472   -0.0173076    0.0010044
 81   C9 pz         0.0000029   -0.0000113    0.0000107   -0.0000061    0.0000011
 82   C10 s         0.1125104   -0.0615036   -0.0103951    0.0680795   -0.0719951
 83   C10 s        -0.1208075    0.0636617    0.0119912   -0.0718337    0.0759393
 84   C10 px        0.0115788   -0.0485909   -0.0372062   -0.0808511   -0.0177218
 85   C10 py        0.0347052    0.0602841    0.0241346    0.0692523    0.0808824
 86   C10 pz        0.0000198   -0.0000236    0.0000008    0.0000120   -0.0000291
 87   C10 s        -0.2676249    0.1725127    0.0221448   -0.2026375    0.2173690
 88   C10 px        0.0081722   -0.0238497   -0.0064967   -0.0255261   -0.0096116
 89   C10 py        0.0109514    0.0067107   -0.0072383    0.0233379    0.0209363
 90   C10 pz        0.0000183   -0.0000077    0.0000025    0.0000190   -0.0000198
 91   C11 s        -0.0247663   -0.0372819    0.1091157   -0.0521471   -0.0308649
 92   C11 s         0.0268820    0.0371890   -0.1158520    0.0520009    0.0320032
 93   C11 px       -0.0302852    0.0387769    0.0760236    0.0505150    0.0160978
 94   C11 py       -0.0033729   -0.0261734   -0.0219704   -0.0263365    0.0501733
 95   C11 pz       -0.0000118    0.0000342    0.0000718    0.0000433   -0.0000465
 96   C11 s         0.0575564    0.0952895   -0.2603148    0.1750319    0.0947351
 97   C11 px       -0.0100918    0.0032588    0.0159525    0.0000414    0.0190459
 98   C11 py       -0.0076786   -0.0112241    0.0045864   -0.0268433    0.0257984
 99   C11 pz        0.0000004    0.0000060    0.0000157    0.0000219   -0.0000184
 100  C12 s        -0.0247723    0.0378789    0.1088922    0.0521388   -0.0308703
 101  C12 s         0.0268759   -0.0378269   -0.1156336   -0.0519898    0.0320222
 102  C12 px        0.0304703    0.0361571   -0.0740524    0.0482255   -0.0203946
 103  C12 py       -0.0008039    0.0292552   -0.0284935    0.0306032    0.0486370
 104  C12 pz        0.0000238    0.0000105   -0.0000166    0.0000141   -0.0000693
 105  C12 s         0.0576039   -0.0967120   -0.2596757   -0.1750512    0.0946688
 106  C12 px        0.0106829    0.0022656   -0.0161998   -0.0021863   -0.0212778
 107  C12 py       -0.0068266    0.0114779    0.0031573    0.0267716    0.0240733
 108  C12 pz        0.0000102   -0.0000029   -0.0000040   -0.0000222   -0.0000443
 109  H13 s        -0.0416356   -0.0376974   -0.0341173   -0.0541061   -0.0679282
 110  H13 s        -0.0077134   -0.0117296   -0.0046783   -0.0216556   -0.0324528
 111  H14 s         0.0169679   -0.0535282   -0.0466975    0.0492901   -0.0135073
 112  H14 s         0.0058030   -0.0094549   -0.0138290    0.0216417   -0.0048169
 113  H15 s         0.0169268    0.0533142   -0.0470204   -0.0493204   -0.0135131
 114  H15 s         0.0057981    0.0094004   -0.0138848   -0.0216656   -0.0048205
 115  H16 s        -0.0416119    0.0375241   -0.0343416    0.0541457   -0.0678030
 116  H16 s        -0.0077132    0.0117095   -0.0047427    0.0216774   -0.0324086
 117  H17 s        -0.0565368   -0.0363414    0.0012219    0.0585025    0.0670675
 118  H17 s        -0.0102787   -0.0137992   -0.0000424    0.0218177    0.0320282
 119  H18 s        -0.0565902    0.0361894    0.0009768   -0.0586145    0.0669618
 120  H18 s        -0.0102915    0.0137465   -0.0001184   -0.0218865    0.0319702
 121  H19 s         0.0085437    0.0231641   -0.0598476    0.0404426    0.0439372
 122  H19 s         0.0016983    0.0102923   -0.0159812    0.0219525    0.0170599
 123  H20 s         0.0085163   -0.0235551   -0.0596513   -0.0404974    0.0439725
 124  H20 s         0.0016775   -0.0104088   -0.0158746   -0.0219747    0.0170859

            Ene    -0.7567048   -0.7252328   -0.7213519   -0.6450490   -0.6250489
            Sym             A            A            A            A            A
            Occ             2            2            2            2            2


                           21           22           23           24           25

 1    C1 s          0.0373685    0.0451984    0.0605555    0.0056156    0.0060066
 2    C1 s         -0.0388663   -0.0461553   -0.0626164   -0.0041725   -0.0042199
 3    C1 px        -0.0255190   -0.0634044   -0.0151783   -0.1418573   -0.0748397
 4    C1 py        -0.0547072    0.0564380   -0.0016154   -0.0943568    0.1380753
 5    C1 pz         0.0000016    0.0000222   -0.0000054    0.0000419    0.0000362
 6    C1 s         -0.1212280   -0.1557342   -0.2252421   -0.0253357   -0.0267042
 7    C1 px         0.0022244   -0.0400835    0.0156156   -0.0818834   -0.0452476
 8    C1 py        -0.0372656    0.0229357   -0.0032618   -0.0443262    0.0923855
 9    C1 pz         0.0000005    0.0000151    0.0000008    0.0000255    0.0000256
 10   C2 s         -0.0640578   -0.0027725   -0.0617047   -0.0211587   -0.0035051
 11   C2 s          0.0661240    0.0048088    0.0620285    0.0224771    0.0076524
 12   C2 px        -0.0140970   -0.0715126   -0.0596379    0.1337694   -0.1270853
 13   C2 py        -0.1002621    0.0409713   -0.0897821    0.0455238    0.1442893
 14   C2 pz        -0.0000208    0.0000205   -0.0000238   -0.0000222    0.0000491
 15   C2 s          0.2111270   -0.0021439    0.2372732    0.0723835    0.0000075
 16   C2 px        -0.0190724   -0.0278290   -0.0213448    0.0588065   -0.0654585
 17   C2 py        -0.0465724    0.0272027   -0.0362296    0.0374952    0.0881150
 18   C2 pz        -0.0000218    0.0000094   -0.0000274   -0.0000147    0.0000283
 19   C3 s          0.0437396   -0.0001590   -0.0002196    0.0477057    0.0000560
 20   C3 s         -0.0477813    0.0001742    0.0002140   -0.0462126   -0.0000588
 21   C3 px         0.0088458    0.1053473    0.0701030   -0.0038012    0.1981358
 22   C3 py        -0.2008830    0.0053838    0.0022806    0.0973287    0.0086864
 23   C3 pz         0.0000143    0.0000303   -0.0000318   -0.0000236    0.0000369
 24   C3 s         -0.1525933    0.0006251    0.0009184   -0.2121111   -0.0001971
 25   C3 px         0.0037388    0.0616283    0.0101631   -0.0013130    0.1049091
 26   C3 py        -0.0834491    0.0030013    0.0001759    0.0320057    0.0045287
 27   C3 pz         0.0000152    0.0000145   -0.0000244   -0.0000093    0.0000151
 28   C4 s         -0.0640469    0.0032749    0.0619068   -0.0204960    0.0034701
 29   C4 s          0.0660992   -0.0053212   -0.0622434    0.0218144   -0.0076229
 30   C4 px         0.0219608   -0.0682351   -0.0654001   -0.1377188   -0.1148904
 31   C4 py        -0.0990234   -0.0459816    0.0839949    0.0350895   -0.1549667
 32   C4 pz         0.0000385   -0.0000417   -0.0001041   -0.0001087   -0.0000241
 33   C4 s          0.2111938    0.0004026   -0.2379378    0.0698226    0.0001366
 34   C4 px         0.0226858   -0.0257736   -0.0235465   -0.0619541   -0.0581122
 35   C4 py        -0.0449883   -0.0290704    0.0339202    0.0328470   -0.0935903
 36   C4 pz         0.0000101   -0.0000067   -0.0000337   -0.0000573    0.0000001
 37   C5 s          0.0370449   -0.0455740   -0.0605658    0.0050374   -0.0058790
 38   C5 s         -0.0385357    0.0465437    0.0626148   -0.0035747    0.0040749
 39   C5 px         0.0296442   -0.0586424   -0.0167552    0.1492296   -0.0631365
 40   C5 py        -0.0528307   -0.0614366    0.0014052   -0.0819450   -0.1445666
 41   C5 pz         0.0000653   -0.0000351   -0.0000012    0.0002485    0.0000321
 42   C5 s         -0.1201744    0.1570019    0.2253287   -0.0231767    0.0262239
 43   C5 px         0.0006326   -0.0379892    0.0144465    0.0855447   -0.0374455
 44   C5 py        -0.0375055   -0.0260164    0.0050284   -0.0371527   -0.0962667
 45   C5 pz         0.0000304   -0.0000366    0.0000110    0.0001366    0.0000216
 46   C6 s         -0.0063249    0.0174613    0.0615760    0.0232156    0.0131463
 47   C6 s          0.0050648   -0.0201051   -0.0610527   -0.0200955   -0.0146678
 48   C6 px         0.0415253   -0.0721663    0.0946005    0.1800855    0.0595966
 49   C6 py         0.0932424    0.0017152   -0.1306033    0.0610172    0.1042954
 50   C6 pz        -0.0000143   -0.0001040    0.0002893    0.0002498    0.0000154
 51   C6 s          0.0436327   -0.0521100   -0.2432608   -0.1002512   -0.0420893
 52   C6 px         0.0221249   -0.0387772    0.0404238    0.0882856    0.0164534
 53   C6 py         0.0345415    0.0216282   -0.0695810    0.0286336    0.0401235
 54   C6 pz         0.0000112   -0.0000718    0.0001582    0.0001323    0.0000067
 55   C7 s         -0.0663753    0.0061336   -0.0354951   -0.0292795   -0.0586833
 56   C7 s          0.0705255   -0.0097276    0.0388856    0.0300080    0.0593986
 57   C7 px        -0.0177328    0.0070063    0.1049395   -0.1239238   -0.0202620
 58   C7 py         0.0298732    0.1510092   -0.0409156   -0.0582892   -0.0285469
 59   C7 pz        -0.0000535   -0.0000836    0.0001778   -0.0000974   -0.0000259
 60   C7 s          0.2023183   -0.0140326    0.1236647    0.1249801    0.2371379
 61   C7 px         0.0187486    0.0059349    0.0312237   -0.0566271    0.0015846
 62   C7 py         0.0301257    0.0619861   -0.0353339   -0.0469675   -0.0162694
 63   C7 pz        -0.0000271   -0.0000208    0.0000604   -0.0000389   -0.0000162
 64   C8 s          0.0496407   -0.0002511    0.0000030    0.0109457   -0.0001242
 65   C8 s         -0.0519174    0.0002553   -0.0000028   -0.0100864    0.0001247
 66   C8 px        -0.0072137    0.1185982   -0.1427579    0.0020197   -0.0453564
 67   C8 py         0.1839519    0.0042241   -0.0055826   -0.0661866   -0.0021170
 68   C8 pz        -0.0000893    0.0000605   -0.0000888    0.0000197   -0.0000611
 69   C8 s         -0.1615878    0.0008783   -0.0000557   -0.0403515    0.0005176
 70   C8 px        -0.0023556    0.0695463   -0.0732422    0.0036265    0.0212259
 71   C8 py         0.0615134    0.0027307   -0.0026269   -0.0965123    0.0007872
 72   C8 pz        -0.0000051    0.0000370   -0.0000443    0.0000485   -0.0000082
 73   C9 s         -0.0665065   -0.0055972    0.0357371   -0.0289365    0.0586560
 74   C9 s          0.0706911    0.0091722   -0.0391336    0.0296252   -0.0593735
 75   C9 px         0.0151684    0.0195811    0.0998079    0.1294873   -0.0224207
 76   C9 py         0.0299896   -0.1499776    0.0500948   -0.0469559    0.0266390
 77   C9 pz        -0.0000209    0.0000946   -0.0000283    0.0000444   -0.0000393
 78   C9 s          0.2027090    0.0122752   -0.1246879    0.1238032   -0.2369696
 79   C9 px        -0.0211937    0.0114417    0.0274059    0.0606154    0.0004126
 80   C9 py         0.0277568   -0.0614560    0.0382372   -0.0415594    0.0164375
 81   C9 pz        -0.0000423    0.0000293   -0.0000115    0.0000251   -0.0000133
 82   C10 s        -0.0064112   -0.0172429   -0.0618972    0.0225499   -0.0132052
 83   C10 s         0.0051717    0.0198967    0.0613501   -0.0194421    0.0147208
 84   C10 px       -0.0498296   -0.0714050    0.0851153   -0.1836441    0.0683697
 85   C10 py        0.0892566   -0.0084470    0.1374011    0.0472533   -0.0981087
 86   C10 pz       -0.0000171    0.0000234   -0.0000591    0.0000312    0.0000070
 87   C10 s         0.0437997    0.0511521    0.2445723   -0.0975693    0.0423552
 88   C10 px       -0.0252266   -0.0366223    0.0353101   -0.0900237    0.0200119
 89   C10 py        0.0323469   -0.0250384    0.0723881    0.0220217   -0.0382338
 90   C10 pz       -0.0000013    0.0000180   -0.0000491    0.0000200   -0.0000054
 91   C11 s         0.0461795    0.1011706    0.0135092   -0.0092586   -0.0471165
 92   C11 s        -0.0484548   -0.1039734   -0.0125122    0.0069941    0.0463882
 93   C11 px        0.0661581   -0.1085861   -0.0066324    0.0730614    0.0535620
 94   C11 py       -0.1013661   -0.0095486    0.0145792    0.0930467    0.0817363
 95   C11 pz        0.0001160   -0.0000432   -0.0000181   -0.0000505   -0.0000432
 96   C11 s        -0.1444343   -0.3362739   -0.0674023    0.0465900    0.1873345
 97   C11 px        0.0207166   -0.0295347    0.0187896    0.0443493    0.0221447
 98   C11 py       -0.0396324    0.0071750    0.0124600    0.0582188    0.0302703
 99   C11 pz        0.0000490   -0.0000011   -0.0000105   -0.0000280   -0.0000275
 100  C12 s         0.0453496   -0.1014824   -0.0134123   -0.0093471    0.0471705
 101  C12 s        -0.0475871    0.1042987    0.0124393    0.0070729   -0.0464363
 102  C12 px       -0.0581219   -0.1089150   -0.0043826   -0.0807952    0.0602247
 103  C12 py       -0.1065840    0.0009303   -0.0160539    0.0862483   -0.0766087
 104  C12 pz        0.0000427   -0.0000872    0.0000211   -0.0001417    0.0001006
 105  C12 s        -0.1417969    0.3373507    0.0668820    0.0470632   -0.1875898
 106  C12 px       -0.0174284   -0.0288581    0.0203677   -0.0490311    0.0246155
 107  C12 py       -0.0412135   -0.0094333   -0.0113809    0.0540594   -0.0280450
 108  C12 pz        0.0000254   -0.0000351    0.0000413   -0.0000838    0.0000480
 109  H13 s        -0.0284433   -0.0738788   -0.0596526   -0.0529136   -0.0793488
 110  H13 s        -0.0181771   -0.0366991   -0.0381298   -0.0356165   -0.0592349
 111  H14 s         0.0959132   -0.0206598    0.0974408    0.0024699   -0.0869636
 112  H14 s         0.0522476   -0.0105991    0.0573471    0.0030702   -0.0658871
 113  H15 s         0.0960470    0.0198694   -0.0973935    0.0014053    0.0873449
 114  H15 s         0.0523035    0.0101426   -0.0573312    0.0024270    0.0661866
 115  H16 s        -0.0279268    0.0742385    0.0600786   -0.0523806    0.0795495
 116  H16 s        -0.0179349    0.0369231    0.0384042   -0.0352587    0.0594078
 117  H17 s         0.0105504    0.0157245   -0.1349065   -0.0872242   -0.0124953
 118  H17 s         0.0051644    0.0109785   -0.0866819   -0.0600124   -0.0122086
 119  H18 s         0.0102841   -0.0159436    0.1356999   -0.0857994    0.0129905
 120  H18 s         0.0050048   -0.0110639    0.0872225   -0.0590950    0.0125368
 121  H19 s        -0.0572172   -0.1157391   -0.0075636    0.0705053    0.1038901
 122  H19 s        -0.0272319   -0.0657507   -0.0045605    0.0433483    0.0774516
 123  H20 s        -0.0561843    0.1162926    0.0067563    0.0705155   -0.1037897
 124  H20 s        -0.0266769    0.0660501    0.0040404    0.0433335   -0.0773833

            Ene    -0.5894047   -0.5764516   -0.5216733   -0.5152075   -0.4845678
            Sym             A            A            A            A            A
            Occ             2            2            2            2            2


                           26           27           28           29           30

 1    C1 s          0.0096060    0.0148870    0.0108519    0.0289608   -0.0000018
 2    C1 s         -0.0134576   -0.0159619   -0.0133807   -0.0282541    0.0000023
 3    C1 px         0.1262347    0.0272897    0.1837648   -0.1263531   -0.0001435
 4    C1 py        -0.1428964    0.1132620    0.0247851   -0.0353366   -0.0003096
 5    C1 pz        -0.0000485   -0.0000018   -0.0000848    0.0000031    0.0895811
 6    C1 s         -0.0265368   -0.0537454   -0.0341378   -0.1221808    0.0000155
 7    C1 px         0.0818112   -0.0008816    0.1246334   -0.0851772   -0.0000649
 8    C1 py        -0.0779943    0.0456535    0.0211074   -0.0230242   -0.0001674
 9    C1 pz        -0.0000301    0.0000110   -0.0000633    0.0000057    0.0744002
 10   C2 s          0.0021491   -0.0055197   -0.0013642   -0.0273095   -0.0000250
 11   C2 s         -0.0041781    0.0043240    0.0009391    0.0263319    0.0000289
 12   C2 px         0.0626542   -0.0407221   -0.1684298    0.1270526    0.0001917
 13   C2 py        -0.0964363   -0.1495027   -0.0260475   -0.0248403    0.0003242
 14   C2 pz        -0.0000188   -0.0000097   -0.0000069   -0.0000855    0.1108409
 15   C2 s         -0.0060291    0.0270225    0.0045044    0.1173538    0.0001011
 16   C2 px         0.0573141   -0.0398377   -0.0745792    0.0585290    0.0000825
 17   C2 py        -0.0565342   -0.0997777   -0.0134107   -0.0158846    0.0002368
 18   C2 pz        -0.0000175   -0.0000144   -0.0000122   -0.0000739    0.0887177
 19   C3 s          0.0011964    0.0467370   -0.0003471    0.0387049    0.0000106
 20   C3 s         -0.0020764   -0.0486265    0.0003689   -0.0408986   -0.0000118
 21   C3 px        -0.0065626    0.0035384    0.1900636   -0.0041507    0.0000988
 22   C3 py         0.1452132   -0.0853029    0.0066911    0.1404217    0.0001582
 23   C3 pz         0.0000269    0.0000183   -0.0000270   -0.0001228    0.1849620
 24   C3 s          0.0045271   -0.1909583    0.0013687   -0.1490776   -0.0000339
 25   C3 px        -0.0017371    0.0027891    0.1314441   -0.0033908    0.0000244
 26   C3 py         0.0366614   -0.0681913    0.0045427    0.1097375    0.0001634
 27   C3 pz         0.0000385    0.0000375   -0.0000280   -0.0000659    0.1448600
 28   C4 s          0.0022240   -0.0055378    0.0018761   -0.0272795   -0.0000258
 29   C4 s         -0.0042317    0.0043430   -0.0014288    0.0263197    0.0000170
 30   C4 px        -0.0538738    0.0531792   -0.1676879   -0.1276808   -0.0000486
 31   C4 py        -0.1005595   -0.1454669    0.0124850   -0.0350363   -0.0003714
 32   C4 pz         0.0000367    0.0001089   -0.0001885   -0.0001295    0.1108584
 33   C4 s         -0.0063218    0.0270606   -0.0067231    0.1172311    0.0001382
 34   C4 px        -0.0521119    0.0480300   -0.0743733   -0.0583910   -0.0000077
 35   C4 py        -0.0606659   -0.0959927    0.0074631   -0.0205333   -0.0002690
 36   C4 pz         0.0000035    0.0000679   -0.0000963   -0.0000943    0.0887434
 37   C5 s          0.0095615    0.0149099   -0.0113821    0.0287237    0.0000268
 38   C5 s         -0.0134083   -0.0159818    0.0138966   -0.0279650   -0.0000270
[...]
 81   C9 pz         0.0016188   -0.0019827   -0.0023131    0.0019829   -0.0003637
 82   C10 s         0.0204308   -0.0271309    0.0023382    0.0185899   -0.0233470
 83   C10 s         0.2810828   -0.3722642    0.5760469    0.5043254   -0.9010887
 84   C10 px        0.1093590   -0.1835460   -0.2361559    0.1001539    0.1786251
 85   C10 py       -0.0858986    0.1339316    0.0119748   -0.2116696    0.0909559
 86   C10 pz        0.0001662   -0.0000128   -0.0000215    0.0000226   -0.0001111
 87   C10 s        -2.2838405    3.8674467   -0.1482863   -2.6524994    2.1798773
 88   C10 px        1.0127310   -1.6667077    0.2563109    1.3724593   -1.1267247
 89   C10 py       -0.3479754    0.5573159   -0.1038304    0.6147231   -0.9979820
 90   C10 pz       -0.0004690    0.0000032    0.0005394   -0.0002854    0.0004218
 91   C11 s        -0.0200217    0.0296390    0.0069885   -0.0207006   -0.0056106
 92   C11 s         0.5541828    0.1869586    0.0429889   -0.2850243   -0.0346831
 93   C11 px       -0.0521986   -0.2938825   -0.0008418    0.0112217    0.0202662
 94   C11 py       -0.2634910    0.3121407    0.0415873   -0.0613495   -0.0498400
 95   C11 pz        0.0001224   -0.0004125   -0.0000728    0.0000300    0.0000576
 96   C11 s         0.7341152   -2.1241936   -0.3987124    2.3630107    0.4432315
 97   C11 px       -0.0735090    0.3989462   -0.6738905   -0.1341483    0.1720129
 98   C11 py       -0.3717392    1.2760230    0.2555056   -1.0875948   -0.0703293
 99   C11 pz        0.0005317   -0.0008650   -0.0001417    0.0009184    0.0001577
 100  C12 s         0.0198104    0.0296585   -0.0071645    0.0207196   -0.0057062
 101  C12 s        -0.5534793    0.1860465   -0.0425392    0.2845644   -0.0360174
 102  C12 px       -0.0756246    0.2656594    0.0013537    0.0063691   -0.0157918
 103  C12 py        0.2558966    0.3374456   -0.0437844    0.0626272   -0.0517888
 104  C12 pz       -0.0002012   -0.0000781    0.0000855   -0.0000280    0.0001017
 105  C12 s        -0.7249608   -2.1357789    0.4124160   -2.3658553    0.4521731
 106  C12 px       -0.1057105   -0.5157718   -0.6481473   -0.2277645   -0.1683809
 107  C12 py        0.3605374    1.2345341   -0.3192442    1.0735980   -0.0891086
 108  C12 pz       -0.0006402   -0.0015062   -0.0006941   -0.0010474   -0.0002243
 109  H13 s        -0.0287378    0.0525122    0.0802375   -0.0622133   -0.0714901
 110  H13 s        -0.0596903    0.0320725    0.0823302   -0.0889589   -0.0904712
 111  H14 s         0.0199588    0.0779788    0.0044759    0.2032867   -0.1133322
 112  H14 s         0.0349153    0.0867245    0.1918568    0.3109674   -0.1442056
 113  H15 s        -0.0204078    0.0780027   -0.0055999   -0.2032999   -0.1133470
 114  H15 s        -0.0353314    0.0851691   -0.1932945   -0.3110568   -0.1448535
 115  H16 s         0.0286609    0.0524208   -0.0804732    0.0626234   -0.0717109
 116  H16 s         0.0598815    0.0321944   -0.0823861    0.0895105   -0.0908524
 117  H17 s        -0.0404899   -0.0795753    0.0525945    0.1154750    0.1430021
 118  H17 s         0.0460067    0.0501523    0.0321205    0.2228456    0.2570858
 119  H18 s         0.0406097   -0.0802259   -0.0529833   -0.1152765    0.1433324
 120  H18 s        -0.0462938    0.0489919   -0.0339820   -0.2223967    0.2579547
 121  H19 s        -0.0124486   -0.1190034    0.0887363    0.0105279   -0.0721023
 122  H19 s         0.0815027   -0.2171782    0.0731727    0.1055628   -0.0658377
 123  H20 s         0.0120360   -0.1186541   -0.0886981   -0.0106275   -0.0728198
 124  H20 s        -0.0815558   -0.2169825   -0.0720709   -0.1060674   -0.0662650

            Ene     1.7105201    1.7563644    1.7873247    1.8797564    1.9340386
            Sym             A            A            A            A            A
            Occ             0            0            0            0            0


                         121          122          123          124

 1    C1 s          0.0224193    0.0168160    0.0764012    0.0606466
 2    C1 s          0.6780763    0.1875604    0.8995414    0.6507442
 3    C1 px        -0.1333990    0.0095550   -0.0724172   -0.0552327
 4    C1 py         0.1056000   -0.0649387    0.0439157    0.0117833
 5    C1 pz         0.0001092   -0.0000038    0.0001539    0.0000656
 6    C1 s         -1.8321588   -1.9297155   -6.1546058   -4.5962947
 7    C1 px         1.4518410    0.6824109    3.4280538    2.6026711
 8    C1 py        -0.4872741   -0.4644253   -1.7345174   -1.1283729
 9    C1 pz        -0.0005477   -0.0004264   -0.0015011   -0.0008293
 10   C2 s         -0.0294299   -0.0168345   -0.0822802   -0.0578627
 11   C2 s         -0.6813518   -0.2702572   -0.7833537   -0.7386384
 12   C2 px         0.0694291   -0.0020618   -0.1586255    0.0514940
 13   C2 py        -0.0809155   -0.0586491   -0.0170510   -0.0948797
 14   C2 pz        -0.0000724   -0.0000394   -0.0000176   -0.0001399
 15   C2 s          2.7038428    1.4874184    8.0895509    3.5874484
 16   C2 px        -0.5043820   -0.0684139   -1.2471376    0.1272638
 17   C2 py         1.0721253    0.9623309    4.2493812    2.9280358
 18   C2 pz         0.0002454    0.0001621    0.0006687   -0.0001185
 19   C3 s          0.0305519    0.0000902    0.0001002    0.1153716
 20   C3 s          0.2869856    0.0006283    0.0011628    1.1850706
 21   C3 px         0.0047808   -0.0175904    0.3495690   -0.0053192
 22   C3 py        -0.1144494   -0.0007978    0.0152192    0.1123255
 23   C3 pz         0.0001815    0.0000142    0.0001179    0.0000983
 24   C3 s         -3.5969143   -0.0101667   -0.0056870   -8.9954944
 25   C3 px        -0.0180645   -1.1463546   -9.1458988    0.1755049
 26   C3 py         0.4033685   -0.0569498   -0.3893992   -3.7950467
 27   C3 pz        -0.0006689   -0.0003342   -0.0025449    0.0014887
 28   C4 s         -0.0294423    0.0168454    0.0821818   -0.0580980
 29   C4 s         -0.6820738    0.2702269    0.7818958   -0.7407356
 30   C4 px        -0.0625344   -0.0066705   -0.1594021   -0.0431284
 31   C4 py        -0.0867056    0.0582854    0.0035712   -0.0988513
 32   C4 pz        -0.0001062    0.0000286   -0.0000361   -0.0000685
 33   C4 s          2.7043348   -1.4861883   -8.0809297    3.6117131
 34   C4 px         0.4118560    0.0078319   -0.8889429   -0.3676886
 35   C4 py         1.1122638   -0.9616920   -4.3335591    2.9200832
 36   C4 pz        -0.0001901    0.0003962    0.0014400   -0.0018857
 37   C5 s          0.0224167   -0.0167843   -0.0762456    0.0608833
 38   C5 s          0.6783171   -0.1872094   -0.8978334    0.6533386
 39   C5 px         0.1239604    0.0040746   -0.0680667    0.0541188
 40   C5 py         0.1166318    0.0656702   -0.0496969    0.0164341
 41   C5 pz         0.0001652   -0.0000581   -0.0001968    0.0001299
 42   C5 s         -1.8328903    1.9293075    6.1475190   -4.6179234
 43   C5 px        -1.4063702    0.6375838    3.2631129   -2.5072173
 44   C5 py        -0.6082798    0.5236369    2.0184113   -1.3539611
 45   C5 pz        -0.0013320    0.0004802    0.0026233   -0.0018898
 46   C6 s         -0.0171040    0.0235432    0.0817716   -0.0632078
 47   C6 s         -0.1206580    0.1918349    0.9417692   -0.6984383
 48   C6 px         0.0089751   -0.0826379    0.0152609   -0.0395685
 49   C6 py        -0.0879158   -0.1216708   -0.0731116    0.0366535
 50   C6 pz         0.0001155    0.0000371    0.0002043   -0.0001792
 51   C6 s          2.0024205   -2.8791011   -6.7911867    4.6988189
 52   C6 px         0.7077765   -1.5138094   -3.6727956    2.7410789
 53   C6 py         0.2829850    0.9886627    1.9863410   -1.5065820
 54   C6 pz         0.0010576   -0.0035881   -0.0075356    0.0051896
 55   C7 s         -0.0326944    0.0416640   -0.0766032    0.0645973
 56   C7 s         -0.7476139    0.6170435   -0.6610613    0.7324730
 57   C7 px        -0.0810453    0.2211188    0.1488493    0.0463852
 58   C7 py        -0.0141310    0.0884018    0.1118489   -0.1378489
 59   C7 pz        -0.0001041    0.0001096   -0.0000740    0.0002043
 60   C7 s          3.1407207   -2.0337291    7.6919068   -3.9264242
 61   C7 px         3.1341349   -2.6643793   -0.5403635    0.6053121
 62   C7 py         0.0983127   -3.7942753   -4.8071578    2.9233837
 63   C7 pz         0.0029765    0.0002358    0.0030044   -0.0002171
 64   C8 s          0.0595187    0.0000879   -0.0001036   -0.1034004
 65   C8 s          1.2443667    0.0009437   -0.0014586   -1.1238013
 66   C8 px        -0.0045504   -0.1480243   -0.3078711   -0.0031478
 67   C8 py         0.1008158   -0.0053723   -0.0133102    0.0913751
 68   C8 pz        -0.0001033   -0.0000767   -0.0001059   -0.0000194
 69   C8 s         -6.0254216   -0.0059641    0.0108064    9.1451599
 70   C8 px         0.1575633    1.1447495    8.1017047    0.1229973
 71   C8 py        -3.5741852    0.0300845    0.3437911   -3.3574289
 72   C8 pz         0.0031362    0.0005474    0.0038915   -0.0006773
 73   C9 s         -0.0326003   -0.0418035    0.0769588    0.0643373
 74   C9 s         -0.7452730   -0.6187642    0.6646284    0.7302376
 75   C9 px         0.0811268    0.2288593    0.1580880   -0.0347116
 76   C9 py        -0.0077103   -0.0703841   -0.0991417   -0.1411111
 77   C9 pz         0.0000770    0.0001173    0.0002632    0.0001494
 78   C9 s          3.1308852    2.0448019   -7.7087088   -3.8968664
 79   C9 px        -3.1227281   -3.0008072   -0.9477849   -0.8561376
 80   C9 py        -0.1626493    3.5601743    4.7520543    2.8445394
 81   C9 pz        -0.0009306   -0.0031617   -0.0032948   -0.0008573
 82   C10 s        -0.0171123   -0.0236533   -0.0819345   -0.0630000
 83   C10 s        -0.1215076   -0.1918438   -0.9437018   -0.6960933
 84   C10 px       -0.0013675   -0.0932228    0.0093673    0.0365984
 85   C10 py       -0.0884790    0.1142811    0.0742182    0.0394911
 86   C10 pz        0.0000183   -0.0000685   -0.0001464   -0.0000998
 87   C10 s         2.0001547    2.8901377    6.7998969    4.6781623
 88   C10 px       -0.7289388   -1.4317115   -3.5017828   -2.5974226
 89   C10 py        0.2210688   -1.1041633   -2.2861484   -1.7183602
 90   C10 pz        0.0001030    0.0008401    0.0010737    0.0004239
 91   C11 s         0.0158544    0.0878980   -0.0030224   -0.0010558
 92   C11 s         0.1973821    1.4133360   -0.2097863   -0.1072480
 93   C11 px       -0.1856090   -0.0088810   -0.0244861   -0.0026461
 94   C11 py        0.0870332   -0.1114530    0.1264124    0.0788301
 95   C11 pz       -0.0002254    0.0001888   -0.0002076   -0.0000767
 96   C11 s        -0.6806655   -7.8694128   -0.5667520   -0.6866614
 97   C11 px        0.5327550    2.4272142   -0.6267146   -0.2399931
 98   C11 py        0.7550549    3.8875949    0.2130868    0.1147929
 99   C11 pz       -0.0001318   -0.0017195   -0.0003041   -0.0003412
 100  C12 s         0.0158925   -0.0877550    0.0030585   -0.0011454
 101  C12 s         0.1987025   -1.4120323    0.2099336   -0.1085953
 102  C12 px        0.1773424   -0.0184680   -0.0136967   -0.0039837
 103  C12 py        0.1028347    0.1105918   -0.1277963    0.0790627
 104  C12 pz        0.0000144   -0.0002136    0.0001375   -0.0000404
 105  C12 s        -0.6892390    7.8626681    0.5656940   -0.6837801
 106  C12 px       -0.6021151    2.7521042   -0.6051238    0.2345333
 107  C12 py        0.7054639   -3.6606502   -0.2661563    0.1341571
 108  C12 pz       -0.0009743    0.0048056   -0.0004027   -0.0001347
 109  H13 s        -0.1678752   -0.0056149   -0.2334822   -0.1659392
 110  H13 s        -0.2920979   -0.0610749   -0.6761839   -0.5359779
 111  H14 s        -0.0054674    0.0791799    0.2265580    0.2189233
 112  H14 s         0.1050057    0.1876807    0.7928900    0.6088004
 113  H15 s        -0.0051141   -0.0787572   -0.2261183    0.2196837
 114  H15 s         0.1053786   -0.1870597   -0.7919513    0.6112364
 115  H16 s        -0.1679898    0.0054464    0.2330941   -0.1666086
 116  H16 s        -0.2923328    0.0608668    0.6752626   -0.5384202
 117  H17 s        -0.0592625   -0.1822747   -0.2399854    0.2124431
 118  H17 s         0.0161410   -0.3686736   -0.7909332    0.6432315
 119  H18 s        -0.0590537    0.1813189    0.2405514    0.2116239
 120  H18 s         0.0163648    0.3681368    0.7917988    0.6403637
 121  H19 s        -0.1490537   -0.2720052    0.0678990    0.0530210
 122  H19 s        -0.2324481   -0.8017847    0.0896253    0.0560692
 123  H20 s        -0.1490061    0.2719971   -0.0676050    0.0534062
 124  H20 s        -0.2323849    0.8014933   -0.0892814    0.0570379

            Ene     2.0190368    2.1482624    2.4232189    2.5394415
            Sym             A            A            A            A
            Occ             0            0            0            0


*** tstop() called on 1f6b98498ad5 at Mon Dec 30 17:18:55 2019
Module time:
	user time   =      38.12 seconds =       0.64 minutes
	system time =       7.44 seconds =       0.12 minutes
	total time  =        181 seconds =       3.02 minutes
Total time:
	user time   =      38.12 seconds =       0.64 minutes
	system time =       7.44 seconds =       0.12 minutes
	total time  =        181 seconds =       3.02 minutes

*** tstart() called on 1f6b98498ad5
*** at Mon Dec 30 17:18:55 2019


         ------------------------------------------------------------
                                   SCF GRAD                          
                          Rob Parrish, Justin Turney,                
                       Andy Simmonett, and Alex Sokolov              
         ------------------------------------------------------------

  ==> Geometry <==

    Molecular point group: c1
    Full point group: C1

    Geometry (in Angstrom), charge = 0, multiplicity = 1:

       Center              X                  Y                   Z               Mass       
    ------------   -----------------  -----------------  -----------------  -----------------
         C            2.476494356100    -0.986350916285     0.000824707737    12.000000000000
         C            1.338794356100    -1.820650916285     0.001124707737    12.000000000000
         C            0.053194356100    -1.256050916285     0.001124707737    12.000000000000
         C           -1.180505643900    -1.926950916285     0.000724707737    12.000000000000
         C           -2.384405643900    -1.191650916285    -0.000875292263    12.000000000000
         C           -2.405605643900     0.219249083715    -0.001975292263    12.000000000000
         C           -1.171805643900     0.858349083715    -0.000675292263    12.000000000000
         C           -0.004205643900     0.108449083715     0.000824707737    12.000000000000
         C            1.095694356100     0.954849083715     0.000624707737    12.000000000000
         C            2.379094356100     0.421649083715     0.000824707737    12.000000000000
         C            0.578194356100     2.374349083715    -0.000575292263    12.000000000000
         C           -0.777705643900     2.316249083715    -0.001375292263    12.000000000000
         H            3.463094356100    -1.446250916285     0.000424707737     1.007825032070
         H            1.460394356100    -2.900650916285     0.000724707737     1.007825032070
         H           -1.211505643900    -3.013250916285     0.001124707737     1.007825032070
         H           -3.328505643900    -1.733250916285    -0.001675292263     1.007825032070
         H           -3.333105643900     0.778449083715    -0.004275292263     1.007825032070
         H            3.257294356100     1.055749083715     0.000324707737     1.007825032070
         H            1.191994356100     3.261549083715    -0.001075292263     1.007825032070
         H           -1.466705643900     3.146449083715    -0.002675292263     1.007825032070

  Nuclear repulsion =  612.714683386161028

  ==> Basis Set <==

  Basis Set: 3-21G
    Blend: 3-21G
    Number of shells: 76
    Number of basis function: 124
    Number of Cartesian functions: 124
    Spherical Harmonics?: false
    Max angular momentum: 1

  ==> DFJKGrad: Density-Fitted SCF Gradients <==

    Gradient:                    1
    J tasked:                  Yes
    K tasked:                  Yes
    wK tasked:                  No
    OpenMP threads:              1
    Integrals threads:           1
    Memory (MB):               375
    Schwarz Cutoff:          0E+00
    Fitting Condition:       1E-12

   => Auxiliary Basis Set <=

  Basis Set: (3-21G AUX)
    Blend: DEF2-SVP-JKFIT
    Number of shells: 348
    Number of basis function: 1228
    Number of Cartesian functions: 1228
    Spherical Harmonics?: false
    Max angular momentum: 4

  ==> DFT Potential <==

   => Composite Functional: B3LYP <= 

    B3LYP Hyb-GGA Exchange-Correlation Functional

    P. J. Stephens, F. J. Devlin, C. F. Chabalowski, and M. J. Frisch, J. Phys. Chem. 98, 11623 (1994)

    Deriv               =              1
    GGA                 =           TRUE
    Meta                =          FALSE

    Exchange Hybrid     =           TRUE
    MP2 Hybrid          =          FALSE

   => Exchange Functionals <=

    0.0800   Slater exchange
    0.7200         Becke 88

   => Exact (HF) Exchange <=

    0.2000               HF 

   => Correlation Functionals <=

    0.1900   Vosko, Wilk & Nusair (VWN5_RPA)
    0.8100   Lee, Yang & Parr

   => Molecular Quadrature <=

    Radial Scheme       =       TREUTLER
    Pruning Scheme      =           FLAT
    Nuclear Scheme      =       TREUTLER

    BS radius alpha     =              1
    Pruning alpha       =              1
    Radial Points       =             75
    Spherical Points    =            302
    Total Points        =         436654
    Total Blocks        =           3280
    Max Points          =            256
    Max Functions       =            112


  -Total Gradient:
     Atom            X                  Y                   Z
    ------   -----------------  -----------------  -----------------
       1        0.005694989349     0.021705630044    -0.000025199123
       2       -0.030937767062     0.000379106998     0.000021559795
       3       -0.000714200960     0.018153127021    -0.000017123370
       4        0.030684160312     0.002928933155     0.000049192436
       5       -0.007500829071     0.021226957252    -0.000001932625
       6       -0.014283360004    -0.007248350018    -0.000009169022
       7        0.036557559641    -0.027978754176     0.000045319826
       8        0.000816998663    -0.018968594544     0.000004724118
       9       -0.034010753952    -0.030942318442    -0.000015543421
      10        0.014849702150    -0.005903299672     0.000039669541
      11       -0.003168435043     0.013401483778    -0.000004656575
      12        0.002035934128     0.013690467723     0.000017418807
      13        0.002936748395    -0.000549941040    -0.000009932160
      14       -0.000732500742    -0.001710856309    -0.000019246206
      15        0.000760910927    -0.001587084195    -0.000003827794
      16       -0.002804240398    -0.000786507346    -0.000006953023
      17        0.000950001452     0.001834612807    -0.000035214593
      18       -0.000916886253     0.001707299215    -0.000010006545
      19       -0.001166740846     0.000365968086    -0.000010325874
      20        0.000944739515     0.000350040180    -0.000008320626


*** tstop() called on 1f6b98498ad5 at Mon Dec 30 17:19:03 2019
Module time:
	user time   =       8.21 seconds =       0.14 minutes
	system time =       0.21 seconds =       0.00 minutes
	total time  =          8 seconds =       0.13 minutes
Total time:
	user time   =      46.34 seconds =       0.77 minutes
	system time =       7.65 seconds =       0.13 minutes
	total time  =        189 seconds =       3.15 minutes

			-----------------------------------------
			 OPTKING 2.0: for geometry optimizations 
			  - R.A. King,  Bethel University        
			-----------------------------------------

	Previous internal coordinate definitions found.
